 Entering Gaussian System, Link 0=/opt/asn/apps/gaussian_g16c01_avx2/g16/g16
 Initial command:
 /opt/asn/apps/gaussian_g16c01_avx2/g16/l1.exe "/scratch/aubmxb002.esoptwatgjfG16.1952070/Gau-182073.inp" -scrdir="/scratch/aubmxb002.esoptwatgjfG16.1952070/"
 Entering Link 1 = /opt/asn/apps/gaussian_g16c01_avx2/g16/l1.exe PID=    182074.
  
 Copyright (c) 1988-2019, Gaussian, Inc.  All Rights Reserved.
  
 This is part of the Gaussian(R) 16 program.  It is based on
 the Gaussian(R) 09 system (copyright 2009, Gaussian, Inc.),
 the Gaussian(R) 03 system (copyright 2003, Gaussian, Inc.),
 the Gaussian(R) 98 system (copyright 1998, Gaussian, Inc.),
 the Gaussian(R) 94 system (copyright 1995, Gaussian, Inc.),
 the Gaussian 92(TM) system (copyright 1992, Gaussian, Inc.),
 the Gaussian 90(TM) system (copyright 1990, Gaussian, Inc.),
 the Gaussian 88(TM) system (copyright 1988, Gaussian, Inc.),
 the Gaussian 86(TM) system (copyright 1986, Carnegie Mellon
 University), and the Gaussian 82(TM) system (copyright 1983,
 Carnegie Mellon University). Gaussian is a federally registered
 trademark of Gaussian, Inc.
  
 This software contains proprietary and confidential information,
 including trade secrets, belonging to Gaussian, Inc.
  
 This software is provided under written license and may be
 used, copied, transmitted, or stored only in accord with that
 written license.
  
 The following legend is applicable only to US Government
 contracts under FAR:
  
                    RESTRICTED RIGHTS LEGEND
  
 Use, reproduction and disclosure by the US Government is
 subject to restrictions as set forth in subparagraphs (a)
 and (c) of the Commercial Computer Software - Restricted
 Rights clause in FAR 52.227-19.
  
 Gaussian, Inc.
 340 Quinnipiac St., Bldg. 40, Wallingford CT 06492
  
  
 ---------------------------------------------------------------
 Warning -- This program may not be used in any manner that
 competes with the business of Gaussian, Inc. or will provide
 assistance to any competitor of Gaussian, Inc.  The licensee
 of this program is prohibited from giving any competitor of
 Gaussian, Inc. access to this program.  By using this program,
 the user acknowledges that Gaussian, Inc. is engaged in the
 business of creating and licensing software in the field of
 computational chemistry and represents and warrants to the
 licensee that it is not a competitor of Gaussian, Inc. and that
 it will not use this program in any manner prohibited above.
 ---------------------------------------------------------------
  

 Cite this work as:
 Gaussian 16, Revision C.01,
 M. J. Frisch, G. W. Trucks, H. B. Schlegel, G. E. Scuseria, 
 M. A. Robb, J. R. Cheeseman, G. Scalmani, V. Barone, 
 G. A. Petersson, H. Nakatsuji, X. Li, M. Caricato, A. V. Marenich, 
 J. Bloino, B. G. Janesko, R. Gomperts, B. Mennucci, H. P. Hratchian, 
 J. V. Ortiz, A. F. Izmaylov, J. L. Sonnenberg, D. Williams-Young, 
 F. Ding, F. Lipparini, F. Egidi, J. Goings, B. Peng, A. Petrone, 
 T. Henderson, D. Ranasinghe, V. G. Zakrzewski, J. Gao, N. Rega, 
 G. Zheng, W. Liang, M. Hada, M. Ehara, K. Toyota, R. Fukuda, 
 J. Hasegawa, M. Ishida, T. Nakajima, Y. Honda, O. Kitao, H. Nakai, 
 T. Vreven, K. Throssell, J. A. Montgomery, Jr., J. E. Peralta, 
 F. Ogliaro, M. J. Bearpark, J. J. Heyd, E. N. Brothers, K. N. Kudin, 
 V. N. Staroverov, T. A. Keith, R. Kobayashi, J. Normand, 
 K. Raghavachari, A. P. Rendell, J. C. Burant, S. S. Iyengar, 
 J. Tomasi, M. Cossi, J. M. Millam, M. Klene, C. Adamo, R. Cammi, 
 J. W. Ochterski, R. L. Martin, K. Morokuma, O. Farkas, 
 J. B. Foresman, and D. J. Fox, Gaussian, Inc., Wallingford CT, 2019.
 
 ******************************************
 Gaussian 16:  ES64L-G16RevC.01  3-Jul-2019
                14-Dec-2023 
 ******************************************
 %nprocshared=16
 Will use up to   16 processors via shared memory.
 %mem=16GB
 %chk=esopt-wat.chk
 Default route: MaxDisk=300GB
 ----------------------------------------------------------------------
 #p td=(50-50,nstates=3) cam-b3lyp/aug-cc-pvdz scrf=(iefpcm,solvent=wat
 er)
 ----------------------------------------------------------------------
 1/38=1,172=1/1;
 2/12=2,17=6,18=5,40=1/2;
 3/5=16,7=10,11=9,25=1,30=1,70=2201,72=1,74=-40/1,2,3,8;
 4//1;
 5/5=2,38=5,53=1/2;
 8/6=1,10=1,108=3/1;
 9/41=3,42=1,48=2,70=2/14;
 6/7=2,8=2,9=2,10=2/1;
 99/5=1,9=1/99;
 Leave Link    1 at Thu Dec 14 21:44:08 2023, MaxMem=  2147483648 cpu:               2.3 elap:               0.2
 (Enter /opt/asn/apps/gaussian_g16c01_avx2/g16/l101.exe)
 -----------------------
 ES optimization - water
 -----------------------
 Symbolic Z-matrix:
 Charge =  0 Multiplicity = 1
 O                    -4.56705   2.73812  -0.31164 
 C                    -3.73751   1.81773  -0.21006 
 C                    -4.17297   0.40097  -0.06062 
 C                    -5.54256   0.1004   -0.03479 
 C                    -5.97768  -1.20886   0.10388 
 C                    -5.04089  -2.24521   0.21988 
 C                    -3.68328  -1.96654   0.19638 
 C                    -3.22842  -0.64342   0.05593 
 C                    -1.79765  -0.33775   0.02953 
 N                    -0.90379  -1.29129   0.13867 
 C                     0.41639  -0.9628    0.10935 
 C                     1.42421  -1.94492   0.22507 
 C                     2.7561   -1.6129    0.1933 
 C                     3.18304  -0.25315   0.04258 
 N                     4.505     0.0727    0.00801 
 C                     4.96159   1.4464   -0.24176 
 C                     5.08302   2.29283   1.02915 
 C                     5.56471  -0.92329   0.2214 
 C                     6.00855  -1.63106  -1.06214 
 C                     2.17502   0.73946  -0.07214 
 C                     0.84759   0.37479  -0.03959 
 O                    -0.09119   1.36504  -0.149 
 C                    -1.4183    1.05402  -0.11927 
 C                    -2.31751   2.07017  -0.23166 
 H                    -6.24971   0.9154   -0.12576 
 H                    -7.03839  -1.43107   0.12255 
 H                    -5.37771  -3.2699    0.32852 
 H                    -2.95617  -2.76312   0.28578 
 H                     1.11953  -2.97938   0.3331 
 H                     3.48641  -2.40439   0.26747 
 H                     4.29534   1.9225   -0.96303 
 H                     5.93457   1.37527  -0.73206 
 H                     4.11988   2.39977   1.53297 
 H                     5.44903   3.29126   0.77556 
 H                     5.78757   1.84214   1.7326 
 H                     5.23791  -1.64597   0.97014 
 H                     6.41163  -0.39487   0.66364 
 H                     5.18671  -2.19038  -1.51468 
 H                     6.817    -2.33213  -0.83825 
 H                     6.37769  -0.91226  -1.79797 
 H                     2.41147   1.78846  -0.16814 
 H                    -1.9759    3.09219  -0.34046 
 
 ITRead=  0  0  0  0  0  0  0  0  0  0  0  0  0  0  0  0  0  0  0  0
 ITRead=  0  0  0  0  0  0  0  0  0  0  0  0  0  0  0  0  0  0  0  0
 ITRead=  0  0
 MicOpt= -1 -1 -1 -1 -1 -1 -1 -1 -1 -1 -1 -1 -1 -1 -1 -1 -1 -1 -1 -1
 MicOpt= -1 -1 -1 -1 -1 -1 -1 -1 -1 -1 -1 -1 -1 -1 -1 -1 -1 -1 -1 -1
 MicOpt= -1 -1
 NAtoms=     42 NQM=       42 NQMF=       0 NMMI=      0 NMMIF=      0
                NMic=       0 NMicF=      0.
                    Isotopes and Nuclear Properties:
 (Nuclear quadrupole moments (NQMom) in fm**2, nuclear magnetic moments (NMagM)
  in nuclear magnetons)

  Atom         1           2           3           4           5           6           7           8           9          10
 IAtWgt=          16          12          12          12          12          12          12          12          12          14
 AtmWgt=  15.9949146  12.0000000  12.0000000  12.0000000  12.0000000  12.0000000  12.0000000  12.0000000  12.0000000  14.0030740
 NucSpn=           0           0           0           0           0           0           0           0           0           2
 AtZEff=  -0.0000000  -0.0000000  -0.0000000  -0.0000000  -0.0000000  -0.0000000  -0.0000000  -0.0000000  -0.0000000  -0.0000000
 NQMom=    0.0000000   0.0000000   0.0000000   0.0000000   0.0000000   0.0000000   0.0000000   0.0000000   0.0000000   2.0440000
 NMagM=    0.0000000   0.0000000   0.0000000   0.0000000   0.0000000   0.0000000   0.0000000   0.0000000   0.0000000   0.4037610
 AtZNuc=   8.0000000   6.0000000   6.0000000   6.0000000   6.0000000   6.0000000   6.0000000   6.0000000   6.0000000   7.0000000

  Atom        11          12          13          14          15          16          17          18          19          20
 IAtWgt=          12          12          12          12          14          12          12          12          12          12
 AtmWgt=  12.0000000  12.0000000  12.0000000  12.0000000  14.0030740  12.0000000  12.0000000  12.0000000  12.0000000  12.0000000
 NucSpn=           0           0           0           0           2           0           0           0           0           0
 AtZEff=  -0.0000000  -0.0000000  -0.0000000  -0.0000000  -0.0000000  -0.0000000  -0.0000000  -0.0000000  -0.0000000  -0.0000000
 NQMom=    0.0000000   0.0000000   0.0000000   0.0000000   2.0440000   0.0000000   0.0000000   0.0000000   0.0000000   0.0000000
 NMagM=    0.0000000   0.0000000   0.0000000   0.0000000   0.4037610   0.0000000   0.0000000   0.0000000   0.0000000   0.0000000
 AtZNuc=   6.0000000   6.0000000   6.0000000   6.0000000   7.0000000   6.0000000   6.0000000   6.0000000   6.0000000   6.0000000

  Atom        21          22          23          24          25          26          27          28          29          30
 IAtWgt=          12          16          12          12           1           1           1           1           1           1
 AtmWgt=  12.0000000  15.9949146  12.0000000  12.0000000   1.0078250   1.0078250   1.0078250   1.0078250   1.0078250   1.0078250
 NucSpn=           0           0           0           0           1           1           1           1           1           1
 AtZEff=  -0.0000000  -0.0000000  -0.0000000  -0.0000000  -0.0000000  -0.0000000  -0.0000000  -0.0000000  -0.0000000  -0.0000000
 NQMom=    0.0000000   0.0000000   0.0000000   0.0000000   0.0000000   0.0000000   0.0000000   0.0000000   0.0000000   0.0000000
 NMagM=    0.0000000   0.0000000   0.0000000   0.0000000   2.7928460   2.7928460   2.7928460   2.7928460   2.7928460   2.7928460
 AtZNuc=   6.0000000   8.0000000   6.0000000   6.0000000   1.0000000   1.0000000   1.0000000   1.0000000   1.0000000   1.0000000

  Atom        31          32          33          34          35          36          37          38          39          40
 IAtWgt=           1           1           1           1           1           1           1           1           1           1
 AtmWgt=   1.0078250   1.0078250   1.0078250   1.0078250   1.0078250   1.0078250   1.0078250   1.0078250   1.0078250   1.0078250
 NucSpn=           1           1           1           1           1           1           1           1           1           1
 AtZEff=  -0.0000000  -0.0000000  -0.0000000  -0.0000000  -0.0000000  -0.0000000  -0.0000000  -0.0000000  -0.0000000  -0.0000000
 NQMom=    0.0000000   0.0000000   0.0000000   0.0000000   0.0000000   0.0000000   0.0000000   0.0000000   0.0000000   0.0000000
 NMagM=    2.7928460   2.7928460   2.7928460   2.7928460   2.7928460   2.7928460   2.7928460   2.7928460   2.7928460   2.7928460
 AtZNuc=   1.0000000   1.0000000   1.0000000   1.0000000   1.0000000   1.0000000   1.0000000   1.0000000   1.0000000   1.0000000

  Atom        41          42
 IAtWgt=           1           1
 AtmWgt=   1.0078250   1.0078250
 NucSpn=           1           1
 AtZEff=  -0.0000000  -0.0000000
 NQMom=    0.0000000   0.0000000
 NMagM=    2.7928460   2.7928460
 AtZNuc=   1.0000000   1.0000000
 Leave Link  101 at Thu Dec 14 21:44:08 2023, MaxMem=  2147483648 cpu:               3.5 elap:               0.2
 (Enter /opt/asn/apps/gaussian_g16c01_avx2/g16/l202.exe)
                          Input orientation:                          
 ---------------------------------------------------------------------
 Center     Atomic      Atomic             Coordinates (Angstroms)
 Number     Number       Type             X           Y           Z
 ---------------------------------------------------------------------
      1          8           0       -4.567055    2.738123   -0.311639
      2          6           0       -3.737508    1.817731   -0.210063
      3          6           0       -4.172967    0.400972   -0.060620
      4          6           0       -5.542562    0.100404   -0.034785
      5          6           0       -5.977679   -1.208857    0.103876
      6          6           0       -5.040886   -2.245206    0.219875
      7          6           0       -3.683277   -1.966540    0.196384
      8          6           0       -3.228422   -0.643420    0.055934
      9          6           0       -1.797651   -0.337748    0.029525
     10          7           0       -0.903788   -1.291289    0.138665
     11          6           0        0.416386   -0.962799    0.109349
     12          6           0        1.424212   -1.944919    0.225065
     13          6           0        2.756098   -1.612898    0.193296
     14          6           0        3.183041   -0.253154    0.042581
     15          7           0        4.505003    0.072696    0.008010
     16          6           0        4.961585    1.446395   -0.241756
     17          6           0        5.083019    2.292830    1.029149
     18          6           0        5.564711   -0.923285    0.221398
     19          6           0        6.008551   -1.631056   -1.062139
     20          6           0        2.175015    0.739463   -0.072140
     21          6           0        0.847585    0.374789   -0.039592
     22          8           0       -0.091191    1.365041   -0.148998
     23          6           0       -1.418303    1.054023   -0.119274
     24          6           0       -2.317514    2.070165   -0.231662
     25          1           0       -6.249707    0.915403   -0.125764
     26          1           0       -7.038392   -1.431071    0.122547
     27          1           0       -5.377708   -3.269904    0.328515
     28          1           0       -2.956171   -2.763119    0.285775
     29          1           0        1.119531   -2.979384    0.333098
     30          1           0        3.486407   -2.404391    0.267468
     31          1           0        4.295344    1.922496   -0.963028
     32          1           0        5.934565    1.375265   -0.732063
     33          1           0        4.119878    2.399773    1.532966
     34          1           0        5.449029    3.291256    0.775556
     35          1           0        5.787568    1.842137    1.732602
     36          1           0        5.237909   -1.645970    0.970139
     37          1           0        6.411630   -0.394866    0.663638
     38          1           0        5.186713   -2.190376   -1.514675
     39          1           0        6.817002   -2.332127   -0.838247
     40          1           0        6.377694   -0.912258   -1.797973
     41          1           0        2.411469    1.788462   -0.168138
     42          1           0       -1.975897    3.092188   -0.340464
 ---------------------------------------------------------------------
                    Distance matrix (angstroms):
                    1          2          3          4          5
     1  O    0.000000
     2  C    1.243217   0.000000
     3  C    2.383399   1.489686   0.000000
     4  C    2.825920   2.497630   1.402426   0.000000
     5  C    4.212026   3.778513   2.423962   1.386621   0.000000
     6  C    5.033944   4.288484   2.798967   2.412139   1.401805
     7  C    4.813835   3.806422   2.431247   2.789738   2.418041
     8  C    3.655391   2.527289   1.412977   2.432437   2.807211
     9  C    4.152948   2.909731   2.489168   3.771004   4.270479
    10  N    5.464290   4.221088   3.686596   4.846145   5.074680
    11  C    6.221635   5.008813   4.790712   6.054770   6.398800
    12  C    7.623268   6.402361   6.075626   7.265453   7.439386
    13  C    8.533165   7.355191   7.220255   8.476744   8.743575
    14  C    8.314878   7.228167   7.385756   8.733106   9.210641
    15  N    9.460915   8.428030   8.684448  10.047694  10.561164
    16  C    9.616050   8.707073   9.195964  10.592055  11.262208
    17  C    9.752945   8.919813   9.509995  10.901452  11.638599
    18  C   10.786228   9.707245   9.831356  11.157288  11.546520
    19  C   11.467189  10.373323  10.430508  11.725256  12.050210
    20  C    7.036157   6.011623   6.357011   7.744081   8.384113
    21  C    5.914193   4.809805   5.020664   6.396037   7.008049
    22  O    4.684567   3.674818   4.195013   5.597303   6.429591
    23  C    3.576008   2.443400   2.831623   4.233915   5.094932
    24  C    2.347978   1.442419   2.501633   3.784132   4.925584
    25  H    2.487604   2.670664   2.140498   1.082846   2.153884
    26  H    4.866025   4.643402   3.405964   2.146550   1.083900
    27  H    6.096175   5.372555   3.883060   3.393838   2.158319
    28  H    5.763290   4.673385   3.407646   3.871943   3.402694
    29  H    8.089674   6.848223   6.292246   7.348736   7.318313
    30  H    9.572830   8.380889   8.163560   9.374841   9.540702
    31  H    8.923658   8.068745   8.651108  10.048186  10.792528
    32  H   10.598026   9.696250  10.176556  11.568747  12.217939
    33  H    8.887061   8.069414   8.677903  10.055232  10.817817
    34  H   10.090089   9.356024  10.081455  11.474026  12.299261
    35  H   10.592447   9.721194  10.222762  11.598670  12.263048
    36  H   10.816679   9.692689   9.685919  10.967144  11.257482
    37  H   11.458547  10.424200  10.639154  11.984815  12.428632
    38  H   10.994243   9.869582   9.820029  11.070460  11.323724
    39  H   12.473232  11.358416  11.351385  12.622265  12.878400
    40  H   11.632798  10.596774  10.773088  12.092428  12.504409
    41  H    7.044306   6.149190   6.729895   8.132277   8.912672
    42  H    2.615395   2.178192   3.485409   4.665331   5.891577
                    6          7          8          9         10
     6  C    0.000000
     7  C    1.386113   0.000000
     8  C    2.424380   1.406153   0.000000
     9  C    3.767387   2.497277   1.463297   0.000000
    10  N    4.246426   2.860918   2.414643   1.311542   0.000000
    11  C    5.607014   4.221648   3.659164   2.301960   1.360744
    12  C    6.472070   5.107615   4.834202   3.605778   2.419562
    13  C    7.822626   6.449079   6.064094   4.731750   3.674396
    14  C    8.463609   7.078536   6.423344   4.981427   4.217716
    15  N    9.825556   8.440492   7.766658   6.316041   5.579655
    16  C   10.671947   9.304501   8.457669   6.996001   6.483998
    17  C   11.123945   9.781803   8.868414   7.433896   7.034254
    18  C   10.687664   9.306680   8.799141   7.388101   6.479487
    19  C   11.140503   9.778955   9.356665   7.987563   7.024087
    20  C    7.814266   6.458649   5.579059   4.117377   3.694242
    21  C    6.450255   5.105508   4.202346   2.740394   2.423819
    22  O    6.137543   4.911395   3.730701   2.417306   2.792696
    23  C    4.911521   3.788608   2.487678   1.450197   2.414901
    24  C    5.122799   4.282933   2.876805   2.477200   3.665397
    25  H    3.401494   3.872459   3.404571   4.627667   5.789496
    26  H    2.159240   3.398378   3.891106   5.354379   6.136217
    27  H    1.084093   2.141801   3.404724   4.637213   4.895602
    28  H    2.149096   1.082225   2.149435   2.700048   2.529862
    29  H    6.205044   4.910347   4.943505   3.947195   2.642213
    30  H    8.528911   7.183393   6.945120   5.678811   4.530938
    31  H   10.292434   8.951381   8.014316   6.574074   6.210726
    32  H   11.596315  10.224117   9.415751   7.956230   7.391329
    33  H   10.354691   9.041038   8.089509   6.691151   6.387897
    34  H   11.874321  10.553619   9.554982   8.138833   7.858984
    35  H   11.672623  10.322930   9.501436   8.073903   7.558653
    36  H   10.323546   8.960414   8.574359   7.217708   6.207865
    37  H   11.609514  10.227201   9.662385   8.233933   7.388810
    38  H   10.373787   9.036291   8.699102   7.389054   6.374645
    39  H   11.905322  10.557461  10.225548   8.884977   7.851643
    40  H   11.671865  10.310776   9.787068   8.396790   7.544151
    41  H    8.482843   7.167904   6.145944   4.719802   4.535408
    42  H    6.180284   5.366012   3.959889   3.454435   4.538045
                   11         12         13         14         15
    11  C    0.000000
    12  C    1.411971   0.000000
    13  C    2.429800   1.373014   0.000000
    14  C    2.856997   2.447212   1.433143   0.000000
    15  N    4.218923   3.689059   2.436027   1.361968   0.000000
    16  C    5.156193   4.922595   3.796408   2.476395   1.468979
    17  C    5.763906   5.656141   4.622545   3.326450   2.511140
    18  C    5.149696   4.264678   2.892173   2.480605   1.469862
    19  C    5.752500   4.771956   3.486387   3.332045   2.511702
    20  C    2.454264   2.803202   2.437564   1.419354   2.424839
    21  C    1.413244   2.404909   2.765422   2.419797   3.670182
    22  O    2.396501   3.659536   4.134288   3.657301   4.777008
    23  C    2.736042   4.146337   4.963446   4.786155   6.005394
    24  C    4.097483   5.507269   6.283875   5.977385   7.112950
    25  H    6.929626   8.197168   9.359414   9.506345  10.788505
    26  H    7.469482   8.478810   9.796433  10.289391  11.641495
    27  H    6.240376   6.930541   8.301973   9.081242  10.437609
    28  H    3.827064   4.456556   5.827656   6.636941   7.986746
    29  H    2.147345   1.083799   2.136628   3.431443   4.569715
    30  H    3.395323   2.113187   1.079497   2.184130   2.690876
    31  H    4.951892   4.961034   4.025590   2.642332   2.099674
    32  H    6.051844   5.681813   4.459603   3.289788   2.070759
    33  H    5.200907   5.277648   4.444788   3.183855   2.808754
    34  H    6.623316   6.627196   5.625089   4.270222   3.440849
    35  H    6.273134   5.971041   4.847323   3.745661   2.783902
    36  H    4.945176   3.897280   2.600762   2.650053   2.101584
    37  H    6.047540   5.241121   3.881718   3.290833   2.069707
    38  H    5.186561   4.152512   3.026307   3.192582   2.811546
    39  H    6.613689   5.510240   4.251154   4.278278   3.441608
    40  H    6.259203   5.449409   4.191898   3.745379   2.781848
    41  H    3.409808   3.881677   3.437827   2.192697   2.712520
    42  H    4.729510   6.103524   6.694364   6.160574   7.158270
                   16         17         18         19         20
    16  C    0.000000
    17  C    1.531796   0.000000
    18  C    2.488706   3.350804   0.000000
    19  C    3.352592   4.541693   1.531470   0.000000
    20  C    2.879843   3.475957   3.786943   4.614700   0.000000
    21  C    4.256079   4.770743   4.899427   5.630683   1.376996
    22  O    5.054282   5.387139   6.112516   6.856914   2.352221
    23  C    6.393116   6.717195   7.265555   7.953415   3.607368
    24  C    7.305784   7.510467   8.443665   9.149431   4.688180
    25  H   11.224459  11.474398  11.961679  12.554925   8.426730
    26  H   12.345525  12.712906  12.613716  13.102145   9.467629
    27  H   11.378474  11.868517  11.191721  11.587348   8.560326
    28  H    8.982714   9.525954   8.717486   9.135901   6.222962
    29  H    5.888918   6.632493   4.898943   5.259961   3.886912
    30  H    4.154998   5.019284   2.552478   2.954169   3.423288
    31  H    1.091230   2.174017   3.333561   3.946218   2.586319
    32  H    1.091856   2.160769   2.515793   3.025292   3.869620
    33  H    2.183355   1.092204   3.853630   5.152595   3.019186
    34  H    2.162415   1.093219   4.252391   5.283876   4.236674
    35  H    2.176453   1.092868   3.159266   4.463461   4.186111
    36  H    3.332831   3.942286   1.090727   2.173538   4.019696
    37  H    2.512491   3.020350   1.091822   2.160774   4.447131
    38  H    3.859677   5.155670   2.182281   1.092266   4.442430
    39  H    4.251541   5.280539   2.162387   1.093262   5.618686
    40  H    3.160763   4.465578   2.176907   1.092881   4.834169
    41  H    2.574009   2.970701   4.177110   5.042950   1.079595
    42  H    7.130711   7.234854   8.561570   9.304905   4.778847
                   21         22         23         24         25
    21  C    0.000000
    22  O    1.368893   0.000000
    23  C    2.366845   1.363394   0.000000
    24  C    3.595698   2.336781   1.361527   0.000000
    25  H    7.118374   6.174952   4.833397   4.099614   0.000000
    26  H    8.091727   7.493703   6.149762   5.888192   2.487895
    27  H    7.223127   7.046843   5.879945   6.180204   4.299250
    28  H    4.941750   5.043693   4.135175   4.902679   4.954621
    29  H    3.385754   4.535669   4.786817   6.134344   8.347789
    30  H    3.844673   5.213566   6.013849   7.345494  10.294056
    31  H    3.890395   4.496119   5.840542   6.654817  10.626069
    32  H    5.230472   6.053908   7.385349   8.296390  12.208012
    33  H    4.157090   4.651105   5.934003   6.683006  10.605802
    34  H    5.508496   5.937941   7.277787   7.926206  11.971528
    35  H    5.449515   6.190949   7.481654   8.342822  12.215087
    36  H    4.937405   6.222376   7.265118   8.505199  11.820616
    37  H    5.660874   6.785597   8.001255   9.114598  12.753408
    38  H    5.252045   6.508635   7.489960   8.724205  11.931749
    39  H    6.602968   7.865573   8.933263  10.158125  13.483062
    40  H    5.943946   7.053487   8.213517   9.324957  12.868096
    41  H    2.112044   2.538298   3.899864   4.737792   8.705171
    42  H    3.930246   2.563555   2.124606   1.083084   4.801035
                   26         27         28         29         30
    26  H    0.000000
    27  H    2.486283   0.000000
    28  H    4.297153   2.474368   0.000000
    29  H    8.306221   6.503733   4.081710   0.000000
    30  H   10.570702   8.906479   6.452583   2.436601   0.000000
    31  H   11.869223  11.054277   8.723472   5.982822   4.570607
    32  H   13.300507  12.274768   9.859381   6.578912   4.612845
    33  H   11.881567  11.126548   8.847678   6.275117   5.008269
    34  H   13.366468  12.667553  10.370281   7.632906   6.045695
    35  H   13.334595  12.359928   9.987726   6.855381   5.047272
    36  H   12.307403  10.758260   8.298152   4.375483   2.033890
    37  H   13.500726  12.139466   9.669907   5.898754   3.571004
    38  H   12.357598  10.778206   8.359199   4.536383   2.472423
    39  H   13.917865  12.286241   9.847035   5.852535   3.510084
    40  H   13.562777  12.176614   9.741085   6.038440   3.853835
    41  H    9.987480   9.300807   7.052268   4.965148   4.350317
    42  H    6.804639   7.245417   5.969735   6.848310   7.772948
                   31         32         33         34         35
    31  H    0.000000
    32  H    1.743517   0.000000
    33  H    2.547267   3.077834   0.000000
    34  H    2.495429   2.485897   1.770608   0.000000
    35  H    3.082144   2.512797   1.769746   1.769320   0.000000
    36  H    4.166475   3.537044   4.234950   4.945567   3.612529
    37  H    3.534809   2.304113   3.717239   3.811381   2.556623
    38  H    4.244357   3.726333   5.612105   5.946617   5.212197
    39  H    4.947337   3.812444   5.940371   6.008173   5.009339
    40  H    3.615127   2.562282   5.211759   5.015476   4.516625
    41  H    2.049097   3.591789   2.487191   3.517914   3.874757
    42  H    6.409698   8.104109   6.414644   7.510969   8.132135
                   36         37         38         39         40
    36  H    0.000000
    37  H    1.742649   0.000000
    38  H    2.544268   3.077227   0.000000
    39  H    2.496919   2.484545   1.770732   0.000000
    40  H    3.082189   2.515626   1.769825   1.769207   0.000000
    41  H    4.591270   4.632500   5.034510   6.069351   5.067661
    42  H    8.729652   9.138839   8.977039  10.343406   9.377761
                   41         42
    41  H    0.000000
    42  H    4.580216   0.000000
 Stoichiometry    C20H18N2O2
 Framework group  C1[X(C20H18N2O2)]
 Deg. of freedom   120
 Full point group                 C1      NOp   1
 Largest Abelian subgroup         C1      NOp   1
 Largest concise Abelian subgroup C1      NOp   1
                         Standard orientation:                         
 ---------------------------------------------------------------------
 Center     Atomic      Atomic             Coordinates (Angstroms)
 Number     Number       Type             X           Y           Z
 ---------------------------------------------------------------------
      1          8           0        4.567055    2.738123    0.311639
      2          6           0        3.737508    1.817731    0.210063
      3          6           0        4.172967    0.400972    0.060620
      4          6           0        5.542562    0.100404    0.034785
      5          6           0        5.977679   -1.208857   -0.103876
      6          6           0        5.040886   -2.245206   -0.219875
      7          6           0        3.683277   -1.966540   -0.196384
      8          6           0        3.228422   -0.643420   -0.055934
      9          6           0        1.797651   -0.337748   -0.029525
     10          7           0        0.903788   -1.291289   -0.138665
     11          6           0       -0.416386   -0.962799   -0.109349
     12          6           0       -1.424212   -1.944919   -0.225065
     13          6           0       -2.756098   -1.612898   -0.193296
     14          6           0       -3.183041   -0.253154   -0.042581
     15          7           0       -4.505003    0.072696   -0.008010
     16          6           0       -4.961585    1.446395    0.241756
     17          6           0       -5.083019    2.292830   -1.029149
     18          6           0       -5.564711   -0.923285   -0.221398
     19          6           0       -6.008551   -1.631056    1.062139
     20          6           0       -2.175015    0.739463    0.072140
     21          6           0       -0.847585    0.374789    0.039592
     22          8           0        0.091191    1.365041    0.148998
     23          6           0        1.418303    1.054023    0.119274
     24          6           0        2.317514    2.070165    0.231662
     25          1           0        6.249707    0.915403    0.125764
     26          1           0        7.038392   -1.431071   -0.122547
     27          1           0        5.377708   -3.269904   -0.328515
     28          1           0        2.956171   -2.763119   -0.285775
     29          1           0       -1.119531   -2.979384   -0.333098
     30          1           0       -3.486407   -2.404391   -0.267468
     31          1           0       -4.295344    1.922496    0.963028
     32          1           0       -5.934565    1.375265    0.732063
     33          1           0       -4.119878    2.399773   -1.532966
     34          1           0       -5.449029    3.291256   -0.775556
     35          1           0       -5.787568    1.842137   -1.732602
     36          1           0       -5.237909   -1.645970   -0.970139
     37          1           0       -6.411630   -0.394866   -0.663638
     38          1           0       -5.186713   -2.190376    1.514675
     39          1           0       -6.817002   -2.332127    0.838247
     40          1           0       -6.377694   -0.912258    1.797973
     41          1           0       -2.411469    1.788462    0.168138
     42          1           0        1.975897    3.092188    0.340464
 ---------------------------------------------------------------------
 Rotational constants (GHZ):           0.6517570           0.1063375           0.0930809
 Leave Link  202 at Thu Dec 14 21:44:08 2023, MaxMem=  2147483648 cpu:               0.1 elap:               0.0
 (Enter /opt/asn/apps/gaussian_g16c01_avx2/g16/l301.exe)
 Standard basis: Aug-CC-pVDZ (5D, 7F)
 Ernie: Thresh=  0.10000D-02 Tol=  0.10000D-05 Strict=F.
 Ernie:  48 primitive shells out of 726 were deleted.
 There are   762 symmetry adapted cartesian basis functions of A   symmetry.
 There are   714 symmetry adapted basis functions of A   symmetry.
   714 basis functions,  1230 primitive gaussians,   762 cartesian basis functions
    84 alpha electrons       84 beta electrons
       nuclear repulsion energy      1893.0709269141 Hartrees.
 IExCor=20419 DFT=T Ex+Corr=CAM-B3LYP ExCW=0 ScaHFX=  1.000000
 ScaDFX=  1.000000  1.000000  1.000000  0.810000 ScalE2=  1.000000  1.000000
 IRadAn=      5 IRanWt=     -1 IRanGd=            0 ICorTp=0 IEmpDi=  4
 HFx  wShort=  0.000000 wLong=  0.330000 cFull=  0.190000 cShort=  0.000000 cLong=  0.460000
 DFx  wShort=  0.000000 wLong=  0.330000 cFull=  0.190000 cShort=  0.000000 cLong=  0.460000
 NAtoms=   42 NActive=   42 NUniq=   42 SFac= 1.00D+00 NAtFMM=   60 NAOKFM=F Big=F
 Integral buffers will be    131072 words long.
 Raffenetti 1 integral format.
 Two-electron integral symmetry is turned on.
 ------------------------------------------------------------------------------
 Polarizable Continuum Model (PCM)
 =================================
 Model                : PCM.
 Atomic radii         : UFF (Universal Force Field).
 Polarization charges : Total charges.
 Charge compensation  : None.
 Solution method      : On-the-fly selection.
 Cavity type          : Scaled VdW (van der Waals Surface) (Alpha=1.100).
 Cavity algorithm     : GePol (No added spheres)
                        Default sphere list used, NSphG=   42.
                        Lebedev-Laikov grids with approx.  5.0 points / Ang**2.
                        Smoothing algorithm: York/Karplus (Gamma=1.0000).
                        Polarization charges: spherical gaussians, with
                                              point-specific exponents (IZeta= 3).
                        Self-potential: point-specific (ISelfS= 7).
                        Self-field    : sphere-specific E.n sum rule (ISelfD= 2).
 Solvent              : Water, Eps=  78.355300 Eps(inf)=   1.777849
 ------------------------------------------------------------------------------
 GePol: Number of generator spheres                  =      42
 GePol: Total number of spheres                      =      42
 GePol: Number of exposed spheres                    =      42 (100.00%)
 GePol: Number of points                             =    3073
 GePol: Average weight of points                     =       0.13
 GePol: Minimum weight of points                     =   0.59D-10
 GePol: Maximum weight of points                     =    0.20577
 GePol: Number of points with low weight             =     195
 GePol: Fraction of low-weight points (<1% of avg)   =       6.35%
 GePol: Cavity surface area                          =    392.907 Ang**2
 GePol: Cavity volume                                =    437.169 Ang**3
 Leave Link  301 at Thu Dec 14 21:44:08 2023, MaxMem=  2147483648 cpu:               1.3 elap:               0.1
 (Enter /opt/asn/apps/gaussian_g16c01_avx2/g16/l302.exe)
 NPDir=0 NMtPBC=     1 NCelOv=     1 NCel=       1 NClECP=     1 NCelD=      1
         NCelK=      1 NCelE2=     1 NClLst=     1 CellRange=     0.0.
 One-electron integrals computed using PRISM.
 One-electron integral symmetry used in STVInt
 NBasis=   714 RedAO= T EigKep=  1.08D-06  NBF=   714
 NBsUse=   709 1.00D-06 EigRej=  9.25D-07 NBFU=   709
 Precomputing XC quadrature grid using
 IXCGrd= 4 IRadAn=           5 IRanWt=          -1 IRanGd=           0 AccXCQ= 0.00D+00.
 Generated NRdTot=       0 NPtTot=           0 NUsed=           0 NTot=          32
 NSgBfM=   755   755   755   755   755 MxSgAt=    42 MxSgA2=    42.
 Leave Link  302 at Thu Dec 14 21:44:09 2023, MaxMem=  2147483648 cpu:              14.5 elap:               0.9
 (Enter /opt/asn/apps/gaussian_g16c01_avx2/g16/l303.exe)
 DipDrv:  MaxL=1.
 Leave Link  303 at Thu Dec 14 21:44:09 2023, MaxMem=  2147483648 cpu:               2.2 elap:               0.2
 (Enter /opt/asn/apps/gaussian_g16c01_avx2/g16/l308.exe)
 Leave Link  308 at Thu Dec 14 21:44:10 2023, MaxMem=  2147483648 cpu:               3.1 elap:               0.2
 (Enter /opt/asn/apps/gaussian_g16c01_avx2/g16/l401.exe)
 ExpMin= 2.97D-02 ExpMax= 1.17D+04 ExpMxC= 4.01D+02 IAcc=3 IRadAn=         5 AccDes= 0.00D+00
 Harris functional with IExCor=20419 and IRadAn=       5 diagonalized for initial guess.
 HarFok:  IExCor=20419 AccDes= 0.00D+00 IRadAn=         5 IDoV= 1 UseB2=F ITyADJ=14
 ICtDFT=  3500011 ScaDFX=  1.000000  1.000000  1.000000  1.000000
 FoFCou: FMM=F IPFlag=           0 FMFlag=      100000 FMFlg1=           0
         NFxFlg=           0 DoJE=T BraDBF=F KetDBF=T FulRan=T
         wScrn=  0.000000 ICntrl=       500 IOpCl=  0 I1Cent=   200000004 NGrid=           0
         NMat0=    1 NMatS0=      1 NMatT0=    0 NMatD0=    1 NMtDS0=    0 NMtDT0=    0
 Petite list used in FoFCou.
 Harris En= -992.283317857031    
 JPrj=0 DoOrth=F DoCkMO=F.
 Leave Link  401 at Thu Dec 14 21:44:13 2023, MaxMem=  2147483648 cpu:              51.4 elap:               3.2
 (Enter /opt/asn/apps/gaussian_g16c01_avx2/g16/l502.exe)
 Integral symmetry usage will be decided dynamically.
 Closed shell SCF:
 Using DIIS extrapolation, IDIIS=  1040.
 NGot=  2147483648 LenX=  2146302142 LenY=  2145720736
 Requested convergence on RMS density matrix=1.00D-08 within 128 cycles.
 Requested convergence on MAX density matrix=1.00D-06.
 Requested convergence on             energy=1.00D-06.
 No special actions if energy rises.
 Fock matrices will be formed incrementally for  20 cycles.

 Cycle   1  Pass 1  IDiag  1:
 FoFJK:  IHMeth= 1 ICntrl=       0 DoSepK=T KAlg= 0 I1Cent=           0 FoldK=F
 IRaf=         1 NMat=       1 IRICut=       1 DoRegI=T DoRafI=F ISym2E= 0 IDoP0=0 IntGTp=1.
 FoFCou: FMM=F IPFlag=           0 FMFlag=      100000 FMFlg1=           0
         NFxFlg=           0 DoJE=T BraDBF=F KetDBF=F FulRan=T
         wScrn=  0.000000 ICntrl=       500 IOpCl=  0 I1Cent=           0 NGrid=           0
         NMat0=    1 NMatS0=      1 NMatT0=    0 NMatD0=    1 NMtDS0=    0 NMtDT0=    0
 Symmetry not used in FoFCou.
 Inv3:  Mode=1 IEnd=    28329987.
 Iteration    1 A*A^-1 deviation from unit magnitude is 3.22D-15 for     51.
 Iteration    1 A*A^-1 deviation from orthogonality  is 2.33D-15 for   2620    458.
 Iteration    1 A^-1*A deviation from unit magnitude is 2.89D-15 for    634.
 Iteration    1 A^-1*A deviation from orthogonality  is 6.83D-15 for   2527   2502.
 E= -1032.22901954937    
 DIIS: error= 1.42D-02 at cycle   1 NSaved=   1.
 NSaved= 1 IEnMin= 1 EnMin= -1032.22901954937     IErMin= 1 ErrMin= 1.42D-02
 ErrMax= 1.42D-02  0.00D+00 EMaxC= 1.00D-01 BMatC= 4.51D-01 BMatP= 4.51D-01
 IDIUse=3 WtCom= 8.58D-01 WtEn= 1.42D-01
 Coeff-Com:  0.100D+01
 Coeff-En:   0.100D+01
 Coeff:      0.100D+01
 Gap=     0.173 Goal=   None    Shift=    0.000
 GapD=    0.173 DampG=1.000 DampE=0.500 DampFc=0.5000 IDamp=-1.
 Damping current iteration by 5.00D-01
 RMSDP=3.28D-02 MaxDP=2.88D+00              OVMax= 2.09D-01

 Cycle   2  Pass 1  IDiag  1:
 RMSU=  7.03D-03    CP:  8.94D-01
 E= -1032.34409403286     Delta-E=       -0.115074483488 Rises=F Damp=T
 DIIS: error= 6.89D-03 at cycle   2 NSaved=   2.
 NSaved= 2 IEnMin= 2 EnMin= -1032.34409403286     IErMin= 2 ErrMin= 6.89D-03
 ErrMax= 6.89D-03  0.00D+00 EMaxC= 1.00D-01 BMatC= 6.96D-02 BMatP= 4.51D-01
 IDIUse=3 WtCom= 9.31D-01 WtEn= 6.89D-02
 Coeff-Com: -0.712D-02 0.101D+01
 Coeff-En:   0.137D+00 0.863D+00
 Coeff:      0.283D-02 0.997D+00
 Gap=     0.181 Goal=   None    Shift=    0.000
 RMSDP=1.60D-02 MaxDP=1.37D+00 DE=-1.15D-01 OVMax= 1.95D-01

 Cycle   3  Pass 1  IDiag  1:
 RMSU=  6.26D-03    CP:  7.90D-01  1.39D+00
 E= -1032.49297739317     Delta-E=       -0.148883360315 Rises=F Damp=F
 DIIS: error= 2.64D-03 at cycle   3 NSaved=   3.
 NSaved= 3 IEnMin= 3 EnMin= -1032.49297739317     IErMin= 3 ErrMin= 2.64D-03
 ErrMax= 2.64D-03  0.00D+00 EMaxC= 1.00D-01 BMatC= 1.80D-02 BMatP= 6.96D-02
 IDIUse=3 WtCom= 9.74D-01 WtEn= 2.64D-02
 Coeff-Com: -0.146D+00 0.335D+00 0.811D+00
 Coeff-En:   0.000D+00 0.000D+00 0.100D+01
 Coeff:     -0.142D+00 0.326D+00 0.816D+00
 Gap=     0.171 Goal=   None    Shift=    0.000
 RMSDP=1.85D-03 MaxDP=1.40D-01 DE=-1.49D-01 OVMax= 4.32D-02

 Cycle   4  Pass 1  IDiag  1:
 RMSU=  1.26D-03    CP:  7.82D-01  1.42D+00  8.81D-01
 E= -1032.50626459982     Delta-E=       -0.013287206650 Rises=F Damp=F
 DIIS: error= 1.02D-03 at cycle   4 NSaved=   4.
 NSaved= 4 IEnMin= 4 EnMin= -1032.50626459982     IErMin= 4 ErrMin= 1.02D-03
 ErrMax= 1.02D-03  0.00D+00 EMaxC= 1.00D-01 BMatC= 2.80D-03 BMatP= 1.80D-02
 IDIUse=3 WtCom= 9.90D-01 WtEn= 1.02D-02
 Coeff-Com: -0.695D-01 0.126D+00 0.430D+00 0.513D+00
 Coeff-En:   0.000D+00 0.000D+00 0.365D-01 0.963D+00
 Coeff:     -0.688D-01 0.124D+00 0.426D+00 0.518D+00
 Gap=     0.171 Goal=   None    Shift=    0.000
 RMSDP=7.45D-04 MaxDP=6.40D-02 DE=-1.33D-02 OVMax= 8.51D-03

 Cycle   5  Pass 1  IDiag  1:
 RMSU=  5.08D-04    CP:  7.80D-01  1.44D+00  8.75D-01  6.15D-01
 E= -1032.50883307010     Delta-E=       -0.002568470280 Rises=F Damp=F
 DIIS: error= 1.12D-04 at cycle   5 NSaved=   5.
 NSaved= 5 IEnMin= 5 EnMin= -1032.50883307010     IErMin= 5 ErrMin= 1.12D-04
 ErrMax= 1.12D-04  0.00D+00 EMaxC= 1.00D-01 BMatC= 4.67D-05 BMatP= 2.80D-03
 IDIUse=3 WtCom= 9.99D-01 WtEn= 1.12D-03
 Coeff-Com: -0.113D-01 0.170D-01 0.867D-01 0.124D+00 0.784D+00
 Coeff-En:   0.000D+00 0.000D+00 0.000D+00 0.000D+00 0.100D+01
 Coeff:     -0.113D-01 0.170D-01 0.866D-01 0.124D+00 0.784D+00
 Gap=     0.171 Goal=   None    Shift=    0.000
 RMSDP=1.64D-04 MaxDP=1.53D-02 DE=-2.57D-03 OVMax= 6.66D-03

 Cycle   6  Pass 1  IDiag  1:
 RMSU=  1.44D-04    CP:  7.80D-01  1.43D+00  8.77D-01  6.29D-01  1.05D+00
 E= -1032.50891328966     Delta-E=       -0.000080219557 Rises=F Damp=F
 DIIS: error= 1.12D-04 at cycle   6 NSaved=   6.
 NSaved= 6 IEnMin= 6 EnMin= -1032.50891328966     IErMin= 5 ErrMin= 1.12D-04
 ErrMax= 1.12D-04  0.00D+00 EMaxC= 1.00D-01 BMatC= 2.29D-05 BMatP= 4.67D-05
 IDIUse=3 WtCom= 9.99D-01 WtEn= 1.12D-03
 Coeff-Com:  0.117D-01-0.229D-01-0.569D-01-0.699D-01 0.411D+00 0.727D+00
 Coeff-En:   0.000D+00 0.000D+00 0.000D+00 0.000D+00 0.000D+00 0.100D+01
 Coeff:      0.117D-01-0.229D-01-0.569D-01-0.698D-01 0.410D+00 0.728D+00
 Gap=     0.172 Goal=   None    Shift=    0.000
 RMSDP=9.52D-05 MaxDP=8.52D-03 DE=-8.02D-05 OVMax= 4.97D-03

 Cycle   7  Pass 1  IDiag  1:
 RMSU=  6.24D-05    CP:  7.80D-01  1.43D+00  8.79D-01  6.30D-01  1.19D+00
                    CP:  9.41D-01
 E= -1032.50895621602     Delta-E=       -0.000042926361 Rises=F Damp=F
 DIIS: error= 2.97D-05 at cycle   7 NSaved=   7.
 NSaved= 7 IEnMin= 7 EnMin= -1032.50895621602     IErMin= 7 ErrMin= 2.97D-05
 ErrMax= 2.97D-05  0.00D+00 EMaxC= 1.00D-01 BMatC= 2.61D-06 BMatP= 2.29D-05
 IDIUse=1 WtCom= 1.00D+00 WtEn= 0.00D+00
 Coeff-Com:  0.605D-02-0.112D-01-0.314D-01-0.453D-01 0.431D-01 0.274D+00
 Coeff-Com:  0.765D+00
 Coeff:      0.605D-02-0.112D-01-0.314D-01-0.453D-01 0.431D-01 0.274D+00
 Coeff:      0.765D+00
 Gap=     0.172 Goal=   None    Shift=    0.000
 RMSDP=5.24D-05 MaxDP=4.12D-03 DE=-4.29D-05 OVMax= 2.84D-03

 Cycle   8  Pass 1  IDiag  1:
 RMSU=  3.22D-05    CP:  7.79D-01  1.43D+00  8.77D-01  6.25D-01  1.24D+00
                    CP:  1.08D+00  1.07D+00
 E= -1032.50896422442     Delta-E=       -0.000008008399 Rises=F Damp=F
 DIIS: error= 1.70D-05 at cycle   8 NSaved=   8.
 NSaved= 8 IEnMin= 8 EnMin= -1032.50896422442     IErMin= 8 ErrMin= 1.70D-05
 ErrMax= 1.70D-05  0.00D+00 EMaxC= 1.00D-01 BMatC= 6.58D-07 BMatP= 2.61D-06
 IDIUse=1 WtCom= 1.00D+00 WtEn= 0.00D+00
 Coeff-Com: -0.464D-03 0.120D-02 0.294D-02-0.150D-02-0.814D-01-0.635D-01
 Coeff-Com:  0.320D+00 0.822D+00
 Coeff:     -0.464D-03 0.120D-02 0.294D-02-0.150D-02-0.814D-01-0.635D-01
 Coeff:      0.320D+00 0.822D+00
 Gap=     0.172 Goal=   None    Shift=    0.000
 RMSDP=2.37D-05 MaxDP=1.32D-03 DE=-8.01D-06 OVMax= 1.89D-03

 Cycle   9  Pass 1  IDiag  1:
 RMSU=  1.28D-05    CP:  7.79D-01  1.43D+00  8.77D-01  6.21D-01  1.25D+00
                    CP:  1.16D+00  1.20D+00  1.25D+00
 E= -1032.50896689047     Delta-E=       -0.000002666054 Rises=F Damp=F
 DIIS: error= 9.54D-06 at cycle   9 NSaved=   9.
 NSaved= 9 IEnMin= 9 EnMin= -1032.50896689047     IErMin= 9 ErrMin= 9.54D-06
 ErrMax= 9.54D-06  0.00D+00 EMaxC= 1.00D-01 BMatC= 1.65D-07 BMatP= 6.58D-07
 IDIUse=1 WtCom= 1.00D+00 WtEn= 0.00D+00
 Coeff-Com: -0.179D-02 0.344D-02 0.100D-01 0.111D-01-0.485D-01-0.110D+00
 Coeff-Com: -0.711D-01 0.336D+00 0.871D+00
 Coeff:     -0.179D-02 0.344D-02 0.100D-01 0.111D-01-0.485D-01-0.110D+00
 Coeff:     -0.711D-01 0.336D+00 0.871D+00
 Gap=     0.172 Goal=   None    Shift=    0.000
 RMSDP=1.79D-05 MaxDP=1.29D-03 DE=-2.67D-06 OVMax= 1.18D-03

 Cycle  10  Pass 1  IDiag  1:
 RMSU=  6.90D-06    CP:  7.79D-01  1.43D+00  8.76D-01  6.18D-01  1.27D+00
                    CP:  1.20D+00  1.35D+00  1.50D+00  1.27D+00
 E= -1032.50896758332     Delta-E=       -0.000000692849 Rises=F Damp=F
 DIIS: error= 3.45D-06 at cycle  10 NSaved=  10.
 NSaved=10 IEnMin=10 EnMin= -1032.50896758332     IErMin=10 ErrMin= 3.45D-06
 ErrMax= 3.45D-06  0.00D+00 EMaxC= 1.00D-01 BMatC= 3.25D-08 BMatP= 1.65D-07
 IDIUse=1 WtCom= 1.00D+00 WtEn= 0.00D+00
 Coeff-Com: -0.555D-03 0.102D-02 0.331D-02 0.415D-02-0.503D-02-0.347D-01
 Coeff-Com: -0.738D-01 0.614D-02 0.388D+00 0.711D+00
 Coeff:     -0.555D-03 0.102D-02 0.331D-02 0.415D-02-0.503D-02-0.347D-01
 Coeff:     -0.738D-01 0.614D-02 0.388D+00 0.711D+00
 Gap=     0.172 Goal=   None    Shift=    0.000
 RMSDP=4.68D-06 MaxDP=5.11D-04 DE=-6.93D-07 OVMax= 3.38D-04

 Cycle  11  Pass 1  IDiag  1:
 RMSU=  2.74D-06    CP:  7.79D-01  1.43D+00  8.76D-01  6.18D-01  1.27D+00
                    CP:  1.21D+00  1.36D+00  1.57D+00  1.32D+00  1.07D+00
 E= -1032.50896766400     Delta-E=       -0.000000080675 Rises=F Damp=F
 DIIS: error= 1.52D-06 at cycle  11 NSaved=  11.
 NSaved=11 IEnMin=11 EnMin= -1032.50896766400     IErMin=11 ErrMin= 1.52D-06
 ErrMax= 1.52D-06  0.00D+00 EMaxC= 1.00D-01 BMatC= 7.21D-09 BMatP= 3.25D-08
 IDIUse=1 WtCom= 1.00D+00 WtEn= 0.00D+00
 Coeff-Com:  0.178D-03-0.364D-03-0.785D-03-0.737D-03 0.886D-02 0.829D-02
 Coeff-Com: -0.100D-01-0.772D-01-0.519D-01 0.291D+00 0.832D+00
 Coeff:      0.178D-03-0.364D-03-0.785D-03-0.737D-03 0.886D-02 0.829D-02
 Coeff:     -0.100D-01-0.772D-01-0.519D-01 0.291D+00 0.832D+00
 Gap=     0.172 Goal=   None    Shift=    0.000
 RMSDP=3.33D-06 MaxDP=2.51D-04 DE=-8.07D-08 OVMax= 1.66D-04

 Cycle  12  Pass 1  IDiag  1:
 RMSU=  1.35D-06    CP:  7.79D-01  1.43D+00  8.76D-01  6.17D-01  1.27D+00
                    CP:  1.21D+00  1.36D+00  1.61D+00  1.43D+00  1.15D+00
                    CP:  1.17D+00
 E= -1032.50896768181     Delta-E=       -0.000000017812 Rises=F Damp=F
 DIIS: error= 7.85D-07 at cycle  12 NSaved=  12.
 NSaved=12 IEnMin=12 EnMin= -1032.50896768181     IErMin=12 ErrMin= 7.85D-07
 ErrMax= 7.85D-07  0.00D+00 EMaxC= 1.00D-01 BMatC= 1.14D-09 BMatP= 7.21D-09
 IDIUse=1 WtCom= 1.00D+00 WtEn= 0.00D+00
 Coeff-Com:  0.190D-03-0.367D-03-0.948D-03-0.109D-02 0.489D-02 0.907D-02
 Coeff-Com:  0.968D-02-0.383D-01-0.882D-01 0.201D-01 0.374D+00 0.711D+00
 Coeff:      0.190D-03-0.367D-03-0.948D-03-0.109D-02 0.489D-02 0.907D-02
 Coeff:      0.968D-02-0.383D-01-0.882D-01 0.201D-01 0.374D+00 0.711D+00
 Gap=     0.172 Goal=   None    Shift=    0.000
 RMSDP=8.46D-07 MaxDP=5.40D-05 DE=-1.78D-08 OVMax= 4.20D-05

 Cycle  13  Pass 1  IDiag  1:
 RMSU=  5.16D-07    CP:  7.79D-01  1.43D+00  8.76D-01  6.17D-01  1.27D+00
                    CP:  1.21D+00  1.37D+00  1.61D+00  1.44D+00  1.19D+00
                    CP:  1.25D+00  9.13D-01
 E= -1032.50896768414     Delta-E=       -0.000000002328 Rises=F Damp=F
 DIIS: error= 2.16D-07 at cycle  13 NSaved=  13.
 NSaved=13 IEnMin=13 EnMin= -1032.50896768414     IErMin=13 ErrMin= 2.16D-07
 ErrMax= 2.16D-07  0.00D+00 EMaxC= 1.00D-01 BMatC= 1.46D-10 BMatP= 1.14D-09
 IDIUse=1 WtCom= 1.00D+00 WtEn= 0.00D+00
 Coeff-Com:  0.456D-04-0.862D-04-0.219D-03-0.272D-03 0.769D-03 0.224D-02
 Coeff-Com:  0.547D-02-0.470D-02-0.259D-01-0.331D-01 0.155D-01 0.281D+00
 Coeff-Com:  0.760D+00
 Coeff:      0.456D-04-0.862D-04-0.219D-03-0.272D-03 0.769D-03 0.224D-02
 Coeff:      0.547D-02-0.470D-02-0.259D-01-0.331D-01 0.155D-01 0.281D+00
 Coeff:      0.760D+00
 Gap=     0.172 Goal=   None    Shift=    0.000
 RMSDP=2.70D-07 MaxDP=2.23D-05 DE=-2.33D-09 OVMax= 1.32D-05

 Cycle  14  Pass 1  IDiag  1:
 RMSU=  1.64D-07    CP:  7.79D-01  1.43D+00  8.76D-01  6.17D-01  1.27D+00
                    CP:  1.21D+00  1.37D+00  1.61D+00  1.44D+00  1.20D+00
                    CP:  1.30D+00  9.71D-01  9.94D-01
 E= -1032.50896768442     Delta-E=       -0.000000000281 Rises=F Damp=F
 DIIS: error= 1.00D-07 at cycle  14 NSaved=  14.
 NSaved=14 IEnMin=14 EnMin= -1032.50896768442     IErMin=14 ErrMin= 1.00D-07
 ErrMax= 1.00D-07  0.00D+00 EMaxC= 1.00D-01 BMatC= 1.45D-11 BMatP= 1.46D-10
 IDIUse=1 WtCom= 1.00D+00 WtEn= 0.00D+00
 Coeff-Com: -0.747D-05 0.156D-04 0.441D-04 0.441D-04-0.395D-03-0.433D-03
 Coeff-Com:  0.608D-03 0.320D-02 0.278D-02-0.147D-01-0.461D-01 0.302D-02
 Coeff-Com:  0.254D+00 0.798D+00
 Coeff:     -0.747D-05 0.156D-04 0.441D-04 0.441D-04-0.395D-03-0.433D-03
 Coeff:      0.608D-03 0.320D-02 0.278D-02-0.147D-01-0.461D-01 0.302D-02
 Coeff:      0.254D+00 0.798D+00
 Gap=     0.172 Goal=   None    Shift=    0.000
 RMSDP=1.29D-07 MaxDP=9.77D-06 DE=-2.81D-10 OVMax= 4.26D-06

 Cycle  15  Pass 1  IDiag  1:
 RMSU=  7.97D-08    CP:  7.79D-01  1.43D+00  8.76D-01  6.17D-01  1.27D+00
                    CP:  1.21D+00  1.37D+00  1.61D+00  1.45D+00  1.20D+00
                    CP:  1.30D+00  1.01D+00  1.01D+00  9.15D-01
 E= -1032.50896768450     Delta-E=       -0.000000000083 Rises=F Damp=F
 DIIS: error= 4.66D-08 at cycle  15 NSaved=  15.
 NSaved=15 IEnMin=15 EnMin= -1032.50896768450     IErMin=15 ErrMin= 4.66D-08
 ErrMax= 4.66D-08  0.00D+00 EMaxC= 1.00D-01 BMatC= 2.43D-12 BMatP= 1.45D-11
 IDIUse=1 WtCom= 1.00D+00 WtEn= 0.00D+00
 Coeff-Com: -0.895D-05 0.175D-04 0.476D-04 0.536D-04-0.256D-03-0.464D-03
 Coeff-Com: -0.484D-03 0.199D-02 0.479D-02-0.119D-02-0.183D-01-0.391D-01
 Coeff-Com: -0.993D-02 0.296D+00 0.767D+00
 Coeff:     -0.895D-05 0.175D-04 0.476D-04 0.536D-04-0.256D-03-0.464D-03
 Coeff:     -0.484D-03 0.199D-02 0.479D-02-0.119D-02-0.183D-01-0.391D-01
 Coeff:     -0.993D-02 0.296D+00 0.767D+00
 Gap=     0.172 Goal=   None    Shift=    0.000
 RMSDP=4.27D-08 MaxDP=2.46D-06 DE=-8.32D-11 OVMax= 1.11D-06

 Cycle  16  Pass 1  IDiag  1:
 RMSU=  3.02D-08    CP:  7.79D-01  1.43D+00  8.76D-01  6.17D-01  1.27D+00
                    CP:  1.21D+00  1.37D+00  1.61D+00  1.44D+00  1.20D+00
                    CP:  1.30D+00  1.01D+00  1.03D+00  1.01D+00  1.08D+00
 E= -1032.50896768440     Delta-E=        0.000000000096 Rises=F Damp=F
 DIIS: error= 2.09D-08 at cycle  16 NSaved=  16.
 NSaved=16 IEnMin=15 EnMin= -1032.50896768450     IErMin=16 ErrMin= 2.09D-08
 ErrMax= 2.09D-08  0.00D+00 EMaxC= 1.00D-01 BMatC= 3.27D-13 BMatP= 2.43D-12
 IDIUse=1 WtCom= 1.00D+00 WtEn= 0.00D+00
 Coeff-Com: -0.164D-05 0.300D-05 0.799D-05 0.974D-05-0.241D-04-0.811D-04
 Coeff-Com: -0.272D-03 0.141D-03 0.106D-02 0.166D-02 0.204D-02-0.142D-01
 Coeff-Com: -0.390D-01-0.315D-01 0.247D+00 0.833D+00
 Coeff:     -0.164D-05 0.300D-05 0.799D-05 0.974D-05-0.241D-04-0.811D-04
 Coeff:     -0.272D-03 0.141D-03 0.106D-02 0.166D-02 0.204D-02-0.142D-01
 Coeff:     -0.390D-01-0.315D-01 0.247D+00 0.833D+00
 Gap=     0.172 Goal=   None    Shift=    0.000
 RMSDP=1.92D-08 MaxDP=1.73D-06 DE= 9.60D-11 OVMax= 5.69D-07

 Cycle  17  Pass 1  IDiag  1:
 RMSU=  1.35D-08    CP:  7.79D-01  1.43D+00  8.76D-01  6.17D-01  1.27D+00
                    CP:  1.21D+00  1.37D+00  1.61D+00  1.44D+00  1.20D+00
                    CP:  1.30D+00  1.01D+00  1.04D+00  1.03D+00  1.19D+00
                    CP:  1.08D+00
 E= -1032.50896768448     Delta-E=       -0.000000000077 Rises=F Damp=F
 DIIS: error= 7.94D-09 at cycle  17 NSaved=  17.
 NSaved=17 IEnMin=15 EnMin= -1032.50896768450     IErMin=17 ErrMin= 7.94D-09
 ErrMax= 7.94D-09  0.00D+00 EMaxC= 1.00D-01 BMatC= 4.50D-14 BMatP= 3.27D-13
 IDIUse=1 WtCom= 1.00D+00 WtEn= 0.00D+00
 Coeff-Com:  0.637D-06-0.130D-05-0.386D-05-0.403D-05 0.252D-04 0.396D-04
 Coeff-Com: -0.200D-04-0.202D-03-0.308D-03 0.581D-03 0.309D-02 0.554D-03
 Coeff-Com: -0.893D-02-0.509D-01-0.330D-01 0.257D+00 0.832D+00
 Coeff:      0.637D-06-0.130D-05-0.386D-05-0.403D-05 0.252D-04 0.396D-04
 Coeff:     -0.200D-04-0.202D-03-0.308D-03 0.581D-03 0.309D-02 0.554D-03
 Coeff:     -0.893D-02-0.509D-01-0.330D-01 0.257D+00 0.832D+00
 Gap=     0.172 Goal=   None    Shift=    0.000
 RMSDP=1.23D-08 MaxDP=5.22D-07 DE=-7.66D-11 OVMax= 2.08D-07

 Cycle  18  Pass 1  IDiag  1:
 RMSU=  7.67D-09    CP:  7.79D-01  1.43D+00  8.76D-01  6.17D-01  1.27D+00
                    CP:  1.21D+00  1.37D+00  1.61D+00  1.44D+00  1.20D+00
                    CP:  1.30D+00  1.01D+00  1.04D+00  1.03D+00  1.24D+00
                    CP:  1.27D+00  1.25D+00
 E= -1032.50896768454     Delta-E=       -0.000000000064 Rises=F Damp=F
 DIIS: error= 2.79D-09 at cycle  18 NSaved=  18.
 NSaved=18 IEnMin=18 EnMin= -1032.50896768454     IErMin=18 ErrMin= 2.79D-09
 ErrMax= 2.79D-09  0.00D+00 EMaxC= 1.00D-01 BMatC= 7.65D-15 BMatP= 4.50D-14
 IDIUse=1 WtCom= 1.00D+00 WtEn= 0.00D+00
 Coeff-Com:  0.478D-06-0.919D-06-0.273D-05-0.299D-05 0.130D-04 0.282D-04
 Coeff-Com:  0.334D-04-0.961D-04-0.267D-03-0.131D-04 0.901D-03 0.218D-02
 Coeff-Com:  0.279D-02-0.149D-01-0.484D-01-0.210D-01 0.303D+00 0.776D+00
 Coeff:      0.478D-06-0.919D-06-0.273D-05-0.299D-05 0.130D-04 0.282D-04
 Coeff:      0.334D-04-0.961D-04-0.267D-03-0.131D-04 0.901D-03 0.218D-02
 Coeff:      0.279D-02-0.149D-01-0.484D-01-0.210D-01 0.303D+00 0.776D+00
 Gap=     0.172 Goal=   None    Shift=    0.000
 RMSDP=1.12D-08 MaxDP=5.98D-07 DE=-6.37D-11 OVMax= 7.77D-08

 Cycle  19  Pass 1  IDiag  1:
 RMSU=  4.59D-09    CP:  7.79D-01  1.43D+00  8.76D-01  6.17D-01  1.27D+00
                    CP:  1.21D+00  1.37D+00  1.61D+00  1.44D+00  1.20D+00
                    CP:  1.30D+00  1.01D+00  1.04D+00  1.04D+00  1.27D+00
                    CP:  1.41D+00  1.58D+00  1.85D+00
 E= -1032.50896768450     Delta-E=        0.000000000049 Rises=F Damp=F
 DIIS: error= 8.56D-10 at cycle  19 NSaved=  19.
 NSaved=19 IEnMin=18 EnMin= -1032.50896768454     IErMin=19 ErrMin= 8.56D-10
 ErrMax= 8.56D-10  0.00D+00 EMaxC= 1.00D-01 BMatC= 1.00D-15 BMatP= 7.65D-15
 IDIUse=1 WtCom= 1.00D+00 WtEn= 0.00D+00
 Large coefficients: NSaved= 19 BigCof=    0.00 CofMax=   10.00 Det=-5.73D-15
 Inversion failed.  Reducing to 18 matrices.
 Large coefficients: NSaved= 18 BigCof=    0.00 CofMax=   10.00 Det=-6.53D-15
 Inversion failed.  Reducing to 17 matrices.
 Large coefficients: NSaved= 17 BigCof=    0.00 CofMax=   10.00 Det=-6.53D-15
 Inversion failed.  Reducing to 16 matrices.
 Large coefficients: NSaved= 16 BigCof=    0.00 CofMax=   10.00 Det=-6.65D-15
 Inversion failed.  Reducing to 15 matrices.
 Coeff-Com: -0.253D-06 0.157D-05 0.120D-04 0.206D-05-0.318D-04-0.112D-03
 Coeff-Com: -0.275D-03 0.497D-03 0.271D-02 0.417D-02-0.832D-02-0.499D-01
 Coeff-Com: -0.543D-01 0.234D+00 0.872D+00
 Coeff:     -0.253D-06 0.157D-05 0.120D-04 0.206D-05-0.318D-04-0.112D-03
 Coeff:     -0.275D-03 0.497D-03 0.271D-02 0.417D-02-0.832D-02-0.499D-01
 Coeff:     -0.543D-01 0.234D+00 0.872D+00
 Gap=     0.172 Goal=   None    Shift=    0.000
 RMSDP=1.54D-08 MaxDP=8.25D-07 DE= 4.89D-11 OVMax= 2.91D-08

 Cycle  20  Pass 1  IDiag  1:
 RMSU=  2.66D-09    CP:  7.79D-01  1.43D+00  8.76D-01  6.17D-01  1.27D+00
                    CP:  1.21D+00  1.37D+00  1.61D+00  1.44D+00  1.20D+00
                    CP:  1.30D+00  1.01D+00  1.04D+00  1.04D+00  1.29D+00
                    CP:  1.59D+00  1.97D+00  3.00D+00  2.34D+00
 E= -1032.50896768463     Delta-E=       -0.000000000138 Rises=F Damp=F
 DIIS: error= 3.94D-10 at cycle  20 NSaved=  16.
 NSaved=16 IEnMin=16 EnMin= -1032.50896768463     IErMin=16 ErrMin= 3.94D-10
 ErrMax= 3.94D-10  0.00D+00 EMaxC= 1.00D-01 BMatC= 2.02D-16 BMatP= 1.00D-15
 IDIUse=1 WtCom= 1.00D+00 WtEn= 0.00D+00
 Large coefficients: NSaved= 16 BigCof=    0.00 CofMax=   10.00 Det=-6.42D-16
 Inversion failed.  Reducing to 15 matrices.
 Coeff-Com:  0.217D-06 0.267D-05 0.346D-06-0.560D-05-0.276D-04-0.981D-04
 Coeff-Com:  0.998D-04 0.830D-03 0.147D-02-0.194D-02-0.182D-01-0.311D-01
 Coeff-Com:  0.674D-01 0.373D+00 0.609D+00
 Coeff:      0.217D-06 0.267D-05 0.346D-06-0.560D-05-0.276D-04-0.981D-04
 Coeff:      0.998D-04 0.830D-03 0.147D-02-0.194D-02-0.182D-01-0.311D-01
 Coeff:      0.674D-01 0.373D+00 0.609D+00
 Gap=     0.172 Goal=   None    Shift=    0.000
 RMSDP=1.47D-08 MaxDP=8.06D-07 DE=-1.38D-10 OVMax= 6.08D-09

 Cycle  21  Pass 1  IDiag  1:
 Restarting incremental Fock formation.
 E= -1032.50896768581     Delta-E=       -0.000000001172 Rises=F Damp=F
 DIIS: error= 7.43D-08 at cycle  21 NSaved=  16.
 NSaved=16 IEnMin=16 EnMin= -1032.50896768581     IErMin=15 ErrMin= 3.94D-10
 ErrMax= 7.43D-08  0.00D+00 EMaxC= 1.00D-01 BMatC= 1.70D-12 BMatP= 2.02D-16
 IDIUse=1 WtCom= 1.00D+00 WtEn= 0.00D+00
 Large coefficients: NSaved= 16 BigCof=    0.00 CofMax=   10.00 Det=-5.10D-16
 Inversion failed.  Reducing to 15 matrices.
 Coeff-Com:  0.212D-05 0.473D-06-0.332D-05-0.232D-04-0.931D-04 0.817D-04
 Coeff-Com:  0.759D-03 0.143D-02-0.161D-02-0.173D-01-0.317D-01 0.616D-01
 Coeff-Com:  0.363D+00 0.626D+00-0.195D-02
 Coeff:      0.212D-05 0.473D-06-0.332D-05-0.232D-04-0.931D-04 0.817D-04
 Coeff:      0.759D-03 0.143D-02-0.161D-02-0.173D-01-0.317D-01 0.616D-01
 Coeff:      0.363D+00 0.626D+00-0.195D-02
 Gap=     0.172 Goal=   None    Shift=    0.000
 RMSDP=9.97D-09 MaxDP=4.47D-07 DE=-1.17D-09 OVMax= 3.57D-10

 Error on total polarization charges =  0.02369
 SCF Done:  E(RCAM-B3LYP) =  -1032.50896769     A.U. after   21 cycles
            NFock= 21  Conv=0.10D-07     -V/T= 2.0058
 KE= 1.026506085508D+03 PE=-6.186570610494D+03 EE= 2.234484630386D+03
 Leave Link  502 at Thu Dec 14 22:00:53 2023, MaxMem=  2147483648 cpu:           15926.2 elap:             999.7
 (Enter /opt/asn/apps/gaussian_g16c01_avx2/g16/l801.exe)
 DoSCS=F DFT=T ScalE2(SS,OS)=  1.000000  1.000000
 ExpMin= 2.97D-02 ExpMax= 1.17D+04 ExpMxC= 4.01D+02 IAcc=3 IRadAn=         5 AccDes= 0.00D+00
 HarFok:  IExCor=  205 AccDes= 0.00D+00 IRadAn=         5 IDoV=-2 UseB2=F ITyADJ=14
 ICtDFT= 12500011 ScaDFX=  1.000000  1.000000  1.000000  1.000000
 GSVD:  LWork=        -768 too small for GESVD, short by        3240 words or        3240 for optimal perf.
 Largest valence mixing into a core orbital is  4.37D-05
 Largest core mixing into a valence orbital is  1.47D-05
 Range of M.O.s used for correlation:    25   709
 NBasis=   714 NAE=    84 NBE=    84 NFC=    24 NFV=     0
 NROrb=    685 NOA=    60 NOB=    60 NVA=   625 NVB=   625

 **** Warning!!: The largest alpha MO coefficient is  0.10157025D+03

 Leave Link  801 at Thu Dec 14 22:00:53 2023, MaxMem=  2147483648 cpu:               4.8 elap:               0.3
 (Enter /opt/asn/apps/gaussian_g16c01_avx2/g16/l914.exe)
 RHF ground state
 Two-electron integrals replicated using symmetry.
 MDV=  2147483648 DFT=T DoStab=F Mixed=T DoRPA=T DoScal=F NonHer=T
 NEqPCM:  Using non-equilibrium solvation (IEInf=1, Eps=  78.3553, EpsInf=   1.7778)
 Inv3:  Mode=1 IEnd=    28329987.
 Iteration    1 A*A^-1 deviation from unit magnitude is 3.55D-15 for   1143.
 Iteration    1 A*A^-1 deviation from orthogonality  is 1.67D-15 for   1808    370.
 Iteration    1 A^-1*A deviation from unit magnitude is 3.33D-15 for   1143.
 Iteration    1 A^-1*A deviation from orthogonality  is 3.66D-15 for   2526   2502.
 Making orbital integer symmetry assigments:
 Orbital symmetries:
       Occupied  (A) (A) (A) (A) (A) (A) (A) (A) (A) (A) (A) (A)
                 (A) (A) (A) (A) (A) (A) (A) (A) (A) (A) (A) (A)
                 (A) (A) (A) (A) (A) (A) (A) (A) (A) (A) (A) (A)
                 (A) (A) (A) (A) (A) (A) (A) (A) (A) (A) (A) (A)
                 (A) (A) (A) (A) (A) (A) (A) (A) (A) (A) (A) (A)
                 (A) (A) (A) (A) (A) (A) (A) (A) (A) (A) (A) (A)
                 (A) (A) (A) (A) (A) (A) (A) (A) (A) (A) (A) (A)
       Virtual   (A) (A) (A) (A) (A) (A) (A) (A) (A) (A) (A) (A)
                 (A) (A) (A) (A) (A) (A) (A) (A) (A) (A) (A) (A)
                 (A) (A) (A) (A) (A) (A) (A) (A) (A) (A) (A) (A)
                 (A) (A) (A) (A) (A) (A) (A) (A) (A) (A) (A) (A)
                 (A) (A) (A) (A) (A) (A) (A) (A) (A) (A) (A) (A)
                 (A) (A) (A) (A) (A) (A) (A) (A) (A) (A) (A) (A)
                 (A) (A) (A) (A) (A) (A) (A) (A) (A) (A) (A) (A)
                 (A) (A) (A) (A) (A) (A) (A) (A) (A) (A) (A) (A)
                 (A) (A) (A) (A) (A) (A) (A) (A) (A) (A) (A) (A)
                 (A) (A) (A) (A) (A) (A) (A) (A) (A) (A) (A) (A)
                 (A) (A) (A) (A) (A) (A) (A) (A) (A) (A) (A) (A)
                 (A) (A) (A) (A) (A) (A) (A) (A) (A) (A) (A) (A)
                 (A) (A) (A) (A) (A) (A) (A) (A) (A) (A) (A) (A)
                 (A) (A) (A) (A) (A) (A) (A) (A) (A) (A) (A) (A)
                 (A) (A) (A) (A) (A) (A) (A) (A) (A) (A) (A) (A)
                 (A) (A) (A) (A) (A) (A) (A) (A) (A) (A) (A) (A)
                 (A) (A) (A) (A) (A) (A) (A) (A) (A) (A) (A) (A)
                 (A) (A) (A) (A) (A) (A) (A) (A) (A) (A) (A) (A)
                 (A) (A) (A) (A) (A) (A) (A) (A) (A) (A) (A) (A)
                 (A) (A) (A) (A) (A) (A) (A) (A) (A) (A) (A) (A)
                 (A) (A) (A) (A) (A) (A) (A) (A) (A) (A) (A) (A)
                 (A) (A) (A) (A) (A) (A) (A) (A) (A) (A) (A) (A)
                 (A) (A) (A) (A) (A) (A) (A) (A) (A) (A) (A) (A)
                 (A) (A) (A) (A) (A) (A) (A) (A) (A) (A) (A) (A)
                 (A) (A) (A) (A) (A) (A) (A) (A) (A) (A) (A) (A)
                 (A) (A) (A) (A) (A) (A) (A) (A) (A) (A) (A) (A)
                 (A) (A) (A) (A) (A) (A) (A) (A) (A) (A) (A) (A)
                 (A) (A) (A) (A) (A) (A) (A) (A) (A) (A) (A) (A)
                 (A) (A) (A) (A) (A) (A) (A) (A) (A) (A) (A) (A)
                 (A) (A) (A) (A) (A) (A) (A) (A) (A) (A) (A) (A)
                 (A) (A) (A) (A) (A) (A) (A) (A) (A) (A) (A) (A)
                 (A) (A) (A) (A) (A) (A) (A) (A) (A) (A) (A) (A)
                 (A) (A) (A) (A) (A) (A) (A) (A) (A) (A) (A) (A)
                 (A) (A) (A) (A) (A) (A) (A) (A) (A) (A) (A) (A)
                 (A) (A) (A) (A) (A) (A) (A) (A) (A) (A) (A) (A)
                 (A) (A) (A) (A) (A) (A) (A) (A) (A) (A) (A) (A)
                 (A) (A) (A) (A) (A) (A) (A) (A) (A) (A) (A) (A)
                 (A) (A) (A) (A) (A) (A) (A) (A) (A) (A) (A) (A)
                 (A) (A) (A) (A) (A) (A) (A) (A) (A) (A) (A) (A)
                 (A) (A) (A) (A) (A) (A) (A) (A) (A) (A) (A) (A)
                 (A) (A) (A) (A) (A) (A) (A) (A) (A) (A) (A) (A)
                 (A) (A) (A) (A) (A) (A) (A) (A) (A) (A) (A) (A)
                 (A) (A) (A) (A) (A) (A) (A) (A) (A) (A) (A) (A)
                 (A) (A) (A) (A) (A) (A) (A) (A) (A) (A) (A) (A)
                 (A) (A) (A) (A) (A) (A) (A) (A) (A) (A) (A) (A)
                 (A) (A) (A) (A) (A) (A) (A) (A) (A) (A) (A) (A)
                 (A) (A) (A) (A) (A) (A) (A) (A) (A) (A) (A) (A)
                 (A) (A) (A) (A) (A) (A) (A) (A) (A) (A) (A) (A)
                 (A) (A) (A) (A) (A) (A) (A) (A) (A) (A) (A) (A)
                 (A) (A) (A) (A) (A) (A) (A) (A) (A) (A) (A) (A)
                 (A) (A) (A) (A) (A) (A) (A) (A) (A) (A) (A) (A)
                 (A) (A) (A) (A) (A) (A) (A) (A) (A) (A) (A) (A)
                 (A)
    24 initial guesses have been made.
 Convergence on wavefunction:    0.001000000000000
 Davidson Disk Diagonalization:  ConvIn= 1.00D-03 SkipCon=T Conv= 1.00D-03.
 Max sub-space:  2000 roots to seek:    24 dimension of matrix:        75000
 Iteration     1 Dimension    24 NMult     0 NNew     24
 CISAX will form    24 AO SS matrices at one time.
 NMat=    24 NSing=    12 JSym2X= 0.
 FoFJK:  IHMeth= 1 ICntrl=       0 DoSepK=T KAlg= 0 I1Cent=           0 FoldK=F
 IRaf=         1 NMat=      48 IRICut=       1 DoRegI=T DoRafI=F ISym2E= 0 IDoP0=3 IntGTp=3.
 New state      1 was old state      2
 New state      2 was old state      1
 New state      3 was old state      4
 New state      4 was old state      8
 New state      5 was old state      3
 New state      6 was old state     14
 New state      7 was old state      6
 New state      8 was old state     13
 New state      9 was old state     10
 New state     10 was old state     24
 New state     11 was old state      5
 New state     12 was old state     16
 Excitation Energies [eV] at current iteration:
 Root      1 :     1.709221738733846
 Root      2 :     3.193448333998821
 Root      3 :     3.226781507208532
 Root      4 :     3.962864965980731
 Root      5 :     4.039802093783528
 Root      6 :     4.078982931533118
 Root      7 :     4.081916858367263
 Root      8 :     4.251505893063538
 Root      9 :     4.258019917176330
 Root     10 :     4.489590781075317
 Root     11 :     4.599210712576413
 Root     12 :     4.723845310874076
 Root     13 :     4.823885396314094
 Root     14 :     4.892220326314037
 Root     15 :     5.036325811683150
 Root     16 :     5.278979269100328
 Root     17 :     5.293371950285489
 Root     18 :     5.316384800987759
 Root     19 :     5.417337142022022
 Root     20 :     5.657777906068338
 Root     21 :     5.667597492099109
 Root     22 :     5.712330883996152
 Root     23 :     5.758630460327507
 Root     24 :     5.763046884688053
 Vector   6 SDiff=1.92D+00 TDiff=2.11D+00 assumed to be singlet.
 Vector  12 SDiff=1.96D+00 TDiff=1.98D+00 assumed to be singlet.
 Iteration     2 Dimension    36 NMult    24 NNew     12
 CISAX will form    12 AO SS matrices at one time.
 NMat=    12 NSing=     6 JSym2X= 0.
 Root      1 not converged, maximum delta is    0.077988192993885
 Root      2 not converged, maximum delta is    0.053806431965526
 Root      3 not converged, maximum delta is    0.103472892450440
 Root      4 not converged, maximum delta is    0.108059457091119
 Root      5 not converged, maximum delta is    0.040462490180485
 New state      6 was old state      8
 Root      6 not converged, maximum delta is    0.179886293810308
 Excitation Energies [eV] at current iteration:
 Root      1 :     1.291334557234518   Change is   -0.417887181499328
 Root      2 :     2.665517116427263   Change is   -0.527931217571558
 Root      3 :     2.711862140465289   Change is   -0.514919366743244
 Root      4 :     3.446365078936438   Change is   -0.516499887044293
 Root      5 :     3.651982614098482   Change is   -0.387819479685047
 Root      6 :     3.812445428612627   Change is   -0.439060464450911
 Iteration     3 Dimension    48 NMult    36 NNew     12
 CISAX will form    12 AO SS matrices at one time.
 NMat=    12 NSing=     6 JSym2X= 0.
 Root      1 not converged, maximum delta is    0.022596143280538
 Root      2 not converged, maximum delta is    0.011619105774808
 Root      3 not converged, maximum delta is    0.024138757518592
 Root      4 not converged, maximum delta is    0.119820078076690
 Root      5 not converged, maximum delta is    0.016846891484987
 Root      6 not converged, maximum delta is    0.048216705845057
 Excitation Energies [eV] at current iteration:
 Root      1 :     1.241840770719817   Change is   -0.049493786514701
 Root      2 :     2.631493418205318   Change is   -0.034023698221945
 Root      3 :     2.655202144081967   Change is   -0.056659996383321
 Root      4 :     3.310439551810572   Change is   -0.135925527125866
 Root      5 :     3.631179961010205   Change is   -0.020802653088277
 Root      6 :     3.756524724766480   Change is   -0.055920703846147
 Iteration     4 Dimension    60 NMult    48 NNew     12
 CISAX will form    12 AO SS matrices at one time.
 NMat=    12 NSing=     6 JSym2X= 0.
 Root      1 not converged, maximum delta is    0.006938341493877
 Root      2 not converged, maximum delta is    0.006229479279689
 Root      3 not converged, maximum delta is    0.017632199173701
 Root      4 not converged, maximum delta is    0.139634699169719
 Root      5 not converged, maximum delta is    0.010109523870535
 Root      6 not converged, maximum delta is    0.009227846560105
 Excitation Energies [eV] at current iteration:
 Root      1 :     1.236550791410398   Change is   -0.005289979309418
 Root      2 :     2.624940646362518   Change is   -0.006552771842799
 Root      3 :     2.644568807845514   Change is   -0.010633336236453
 Root      4 :     3.203050480798923   Change is   -0.107389071011649
 Root      5 :     3.625428595455146   Change is   -0.005751365555058
 Root      6 :     3.751820806417256   Change is   -0.004703918349224
 Iteration     5 Dimension    72 NMult    60 NNew     12
 CISAX will form    12 AO SS matrices at one time.
 NMat=    12 NSing=     6 JSym2X= 0.
 Root      1 not converged, maximum delta is    0.001763343697708
 Root      2 not converged, maximum delta is    0.001750968010306
 Root      3 not converged, maximum delta is    0.004531259402719
 Root      4 not converged, maximum delta is    0.037235031712502
 Root      5 not converged, maximum delta is    0.002974898717160
 Root      6 not converged, maximum delta is    0.003121962865616
 Excitation Energies [eV] at current iteration:
 Root      1 :     1.236107651864519   Change is   -0.000443139545880
 Root      2 :     2.624444352820358   Change is   -0.000496293542160
 Root      3 :     2.643120953033013   Change is   -0.001447854812501
 Root      4 :     3.170673549157432   Change is   -0.032376931641491
 Root      5 :     3.624808362634174   Change is   -0.000620232820973
 Root      6 :     3.751307348545125   Change is   -0.000513457872130
 Iteration     6 Dimension    84 NMult    72 NNew     12
 CISAX will form    12 AO SS matrices at one time.
 NMat=    12 NSing=     6 JSym2X= 0.
 Root      1 has converged.
 Root      2 has converged.
 Root      3 not converged, maximum delta is    0.001501977514570
 Root      4 not converged, maximum delta is    0.011531725903658
 Root      5 not converged, maximum delta is    0.001051333259570
 Root      6 not converged, maximum delta is    0.005027485873921
 Excitation Energies [eV] at current iteration:
 Root      1 :     1.236066978379113   Change is   -0.000040673485406
 Root      2 :     2.624377612477792   Change is   -0.000066740342566
 Root      3 :     2.642932887783240   Change is   -0.000188065249773
 Root      4 :     3.165287677205042   Change is   -0.005385871952391
 Root      5 :     3.624693080075644   Change is   -0.000115282558530
 Root      6 :     3.751142225867044   Change is   -0.000165122678081
 Iteration     7 Dimension    92 NMult    84 NNew      8
 CISAX will form     8 AO SS matrices at one time.
 NMat=     8 NSing=     4 JSym2X= 0.
 Root      1 has converged.
 Root      2 has converged.
 Root      3 has converged.
 Root      4 not converged, maximum delta is    0.008837039930984
 Root      5 has converged.
 Root      6 not converged, maximum delta is    0.010012174028622
 Excitation Energies [eV] at current iteration:
 Root      1 :     1.236065379274212   Change is   -0.000001599104900
 Root      2 :     2.624377076258478   Change is   -0.000000536219315
 Root      3 :     2.642913798183028   Change is   -0.000019089600212
 Root      4 :     3.164244054779110   Change is   -0.001043622425931
 Root      5 :     3.624675449266053   Change is   -0.000017630809591
 Root      6 :     3.750991942109537   Change is   -0.000150283757508
 Iteration     8 Dimension    96 NMult    92 NNew      4
 CISAX will form     4 AO SS matrices at one time.
 NMat=     4 NSing=     2 JSym2X= 0.
 Root      1 has converged.
 Root      2 has converged.
 Root      3 has converged.
 Root      4 not converged, maximum delta is    0.002201882380184
 Root      5 has converged.
 Root      6 not converged, maximum delta is    0.005619540773839
 Excitation Energies [eV] at current iteration:
 Root      1 :     1.236065342074219   Change is   -0.000000037199993
 Root      2 :     2.624377002463211   Change is   -0.000000073795266
 Root      3 :     2.642913768778247   Change is   -0.000000029404781
 Root      4 :     3.164078746511982   Change is   -0.000165308267128
 Root      5 :     3.624675428724966   Change is   -0.000000020541087
 Root      6 :     3.750922902329019   Change is   -0.000069039780518
 Iteration     9 Dimension   100 NMult    96 NNew      4
 CISAX will form     4 AO SS matrices at one time.
 NMat=     4 NSing=     2 JSym2X= 0.
 Root      1 has converged.
 Root      2 has converged.
 Root      3 has converged.
 Root      4 has converged.
 Root      5 has converged.
 Root      6 has converged.
 Excitation Energies [eV] at current iteration:
 Root      1 :     1.236065326654075   Change is   -0.000000015420144
 Root      2 :     2.624376969959195   Change is   -0.000000032504017
 Root      3 :     2.642913731233941   Change is   -0.000000037544306
 Root      4 :     3.164058601811796   Change is   -0.000020144700187
 Root      5 :     3.624675404894037   Change is   -0.000000023830929
 Root      6 :     3.750913582897757   Change is   -0.000009319431262
 Convergence achieved on expansion vectors.
 ***********************************************************************
 Excited states from <AA,BB:AA,BB> singles matrix:
 ***********************************************************************
 
 1PDM for each excited state written to RWF  633
 Ground to excited state transition densities written to RWF  633
 Ground to excited state transition electric dipole moments (Au):
       state          X           Y           Z        Dip. S.      Osc.
         1         0.0000      0.0000      0.0000      0.0000      0.0000
         2        -4.0458     -0.5804     -0.0812     16.7116      1.0745
         3         0.0000      0.0000      0.0000      0.0000      0.0000
         4         0.0000      0.0000      0.0000      0.0000      0.0000
         5        -0.1360      0.2025      0.0245      0.0601      0.0053
         6        -0.0047     -0.0027      0.0212      0.0005      0.0000
 Ground to excited state transition velocity dipole moments (Au):
       state          X           Y           Z        Dip. S.      Osc.
         1        -0.0000     -0.0000     -0.0000      0.0000      0.0000
         2         0.3860      0.0553      0.0078      0.1521      1.0514
         3         0.0000     -0.0000     -0.0000      0.0000      0.0000
         4         0.0000     -0.0000     -0.0000      0.0000      0.0000
         5         0.0180     -0.0270     -0.0033      0.0011      0.0053
         6         0.0007      0.0004     -0.0038      0.0000      0.0001
 Ground to excited state transition magnetic dipole moments (Au):
       state          X           Y           Z
         1         0.0000      0.0000     -0.0000
         2         0.0101     -0.0998      0.8782
         3        -0.0000     -0.0000     -0.0000
         4        -0.0000     -0.0000     -0.0000
         5         0.0057     -0.0513      0.4060
         6         0.5275      0.5312      0.0601
 Ground to excited state transition velocity quadrupole moments (Au):
       state          XX          YY          ZZ          XY          XZ          YZ
         1        -0.0000     -0.0000      0.0000     -0.0000     -0.0000      0.0000
         2         0.2884      0.2167     -0.0277      0.1710      0.0289      0.0634
         3         0.0000      0.0000      0.0000      0.0000      0.0000     -0.0000
         4        -0.0000     -0.0000     -0.0000     -0.0000     -0.0000     -0.0000
         5        -0.6196     -0.3107     -0.0228     -0.2680     -0.0231     -0.0156
         6         0.0022     -0.0068      0.0068      0.0037     -0.0380      0.0316
 <0|del|b> * <b|rxdel|0> + <0|del|b> * <b|delr+rdel|0>
 Rotatory Strengths (R) in cgs (10**-40 erg-esu-cm/Gauss)
       state          XX          YY          ZZ    R(velocity)    E-M Angle
         1         0.0000     -0.0000      0.0000      0.0000       90.00
         2         3.8013    124.0576    -89.7714     12.6958       89.14
         3         0.0000     -0.0000     -0.0000     -0.0000       90.00
         4         0.0000     -0.0000     -0.0000      0.0000       90.00
         5         0.8051     -6.3941      6.3487      0.2532       89.39
         6         0.0041      0.4944      1.4687      0.6557       82.47
 1/2[<0|r|b>*<b|rxdel|0> + (<0|rxdel|b>*<b|r|0>)*]
 Rotatory Strengths (R) in cgs (10**-40 erg-esu-cm/Gauss)
       state          XX          YY          ZZ     R(length)
         1        -0.0000     -0.0000      0.0000     -0.0000
         2        28.8356    -40.9615     50.4275     12.7672
         3         0.0000      0.0000      0.0000      0.0000
         4         0.0000      0.0000      0.0000      0.0000
         5         0.5462      7.3442     -7.0396      0.2836
         6         1.7653      1.0280     -0.8998      0.6312
  1/2[<0|del|b>*<b|r|0> + (<0|r|b>*<b|del|0>)*] (Au)
       state          X           Y           Z        Dip. S.   Osc.(frdel)
         1        -0.0000     -0.0000     -0.0000      0.0000      0.0000
         2        -1.5616     -0.0321     -0.0006      1.5943      1.0629
         3         0.0000     -0.0000     -0.0000     -0.0000     -0.0000
         4         0.0000     -0.0000     -0.0000     -0.0000     -0.0000
         5        -0.0025     -0.0055     -0.0001      0.0080      0.0053
         6        -0.0000     -0.0000     -0.0001      0.0001      0.0001

 Excitation energies and oscillator strengths:
 
 Excited State   1:      Triplet-A      1.2361 eV 1003.06 nm  f=0.0000  <S**2>=2.000
      82 -> 85         0.10362
      83 -> 85        -0.15921
      84 -> 85         0.68349
      84 <- 85         0.19666
 This state for optimization and/or second-order correction.
 Total Energy, E(TD-HF/TD-DFT) =  -1032.46354312    
 Copying the excited state density for this state as the 1-particle RhoCI density.
 
 Excited State   2:      Singlet-A      2.6244 eV  472.43 nm  f=1.0745  <S**2>=0.000
      84 -> 85         0.69488
 
 Excited State   3:      Triplet-A      2.6429 eV  469.12 nm  f=0.0000  <S**2>=2.000
      77 -> 85        -0.10718
      79 -> 85        -0.10737
      82 -> 85         0.12236
      83 -> 85         0.56331
      84 -> 85         0.10549
      84 -> 86         0.22628
 
 Excited State   4:      Triplet-A      3.1641 eV  391.85 nm  f=0.0000  <S**2>=2.000
      81 -> 85         0.24852
      81 -> 86        -0.24817
      81 -> 88        -0.12195
      81 -> 89         0.10737
      82 -> 85         0.42358
      82 -> 86         0.15374
      84 -> 85        -0.13224
 
 Excited State   5:      Singlet-A      3.6247 eV  342.06 nm  f=0.0053  <S**2>=0.000
      82 -> 85         0.19464
      83 -> 85         0.65764
 
 Excited State   6:      Singlet-A      3.7509 eV  330.54 nm  f=0.0000  <S**2>=0.000
      80 -> 85         0.63536
      80 -> 86        -0.24348
 SavETr:  write IOETrn=   770 NScale= 10 NData=  16 NLR=1 NState=    6 LETran=     118.
 Leave Link  914 at Thu Dec 14 22:41:30 2023, MaxMem=  2147483648 cpu:           38866.5 elap:            2436.7
 (Enter /opt/asn/apps/gaussian_g16c01_avx2/g16/l601.exe)
 Copying SCF densities to generalized density rwf, IOpCl= 0 IROHF=0.

 **********************************************************************

            Population analysis using the SCF Density.

 **********************************************************************

 Orbital symmetries:
       Occupied  (A) (A) (A) (A) (A) (A) (A) (A) (A) (A) (A) (A)
                 (A) (A) (A) (A) (A) (A) (A) (A) (A) (A) (A) (A)
                 (A) (A) (A) (A) (A) (A) (A) (A) (A) (A) (A) (A)
                 (A) (A) (A) (A) (A) (A) (A) (A) (A) (A) (A) (A)
                 (A) (A) (A) (A) (A) (A) (A) (A) (A) (A) (A) (A)
                 (A) (A) (A) (A) (A) (A) (A) (A) (A) (A) (A) (A)
                 (A) (A) (A) (A) (A) (A) (A) (A) (A) (A) (A) (A)
       Virtual   (A) (A) (A) (A) (A) (A) (A) (A) (A) (A) (A) (A)
[...]
     8  C    0.000372  -0.401464   1.178139   0.803759  -8.195296  -1.702397
     9  C   -0.006951   1.253079  -6.680607   1.482039  -6.988736  -2.464866
    10  N   -0.004098   0.562201   1.159860  -0.186582   0.295509   0.081592
    11  C    0.029759  -3.901115  -8.850088   0.955198  -3.658454  -1.074484
    12  C    0.019928  -0.054852  -8.606786   0.875644   1.029043   0.045348
    13  C   -0.050670  -4.455609   3.452648  -0.377788  -0.342371  -0.102156
    14  C   -0.013265  -5.773175  -2.308510   0.098867  -0.406017   0.152814
    15  N    0.179893   0.033002   0.687613  -0.060508   0.001630  -0.001125
    16  C   -0.035141   0.060339   0.158515  -0.003111  -0.094643   0.003452
    17  C    0.006115  -0.020881  -0.100907  -0.001838  -0.011466   0.000285
    18  C    0.037919  -0.652408   0.462216  -0.030613  -0.037134  -0.000243
    19  C    4.328415   0.014749  -0.038124   0.000448   0.002866   0.000410
    20  C    0.014749  28.942930  -7.915568   0.450754   1.747188  -1.131947
    21  C   -0.038124  -7.915568  36.021613  -2.194891  -3.791793   3.627790
    22  O    0.000448   0.450754  -2.194891  10.618037  -1.945188  -0.650921
    23  C    0.002866   1.747188  -3.791793  -1.945188  32.505366  -5.647513
    24  C    0.000410  -1.131947   3.627790  -0.650921  -5.647513  27.186113
    25  H    0.000000  -0.001916   0.004579   0.003100   0.057203  -0.150690
    26  H   -0.000000   0.000865  -0.003055  -0.001089   0.020386  -0.034514
    27  H    0.000003  -0.001456   0.006213   0.001004  -0.005441   0.017324
    28  H   -0.000197   0.010493  -0.073537   0.008248  -0.114134   0.063235
    29  H    0.006699  -0.296224   0.730609  -0.039254  -0.099808  -0.023401
    30  H    0.024291   0.737456  -1.101091   0.021130   0.007756  -0.005342
    31  H    0.047148   0.343625  -0.196236   0.009533   0.044637  -0.000819
    32  H   -0.034278   0.006251   0.044311   0.000234  -0.008299   0.000078
    33  H    0.002296  -0.053267  -0.036654   0.007222  -0.004688  -0.001890
    34  H   -0.013985   0.023560  -0.010221  -0.000647  -0.002666   0.000095
    35  H    0.025277   0.178332  -0.006147  -0.000043   0.002974   0.000360
    36  H    0.030051  -0.200541  -0.022559  -0.000466  -0.000337   0.000324
    37  H   -0.334475  -0.034194   0.073623  -0.001268  -0.001919  -0.000371
    38  H    0.120777  -0.142628   0.066075  -0.000362  -0.002005   0.000168
    39  H    0.251522   0.018031  -0.002120  -0.000184   0.000133   0.000047
    40  H    0.146955   0.018530  -0.018573   0.000383   0.000483   0.000015
    41  H    0.019091  -5.498568   2.417597  -0.612894  -0.749580   0.116614
    42  H    0.000039   0.166110  -0.742439  -0.347748   1.916627  -3.071771
              25         26         27         28         29         30
     1  O   -0.180201   0.001577   0.001400  -0.000977  -0.000143   0.000021
     2  C    0.656828  -0.047333   0.023524  -0.060434   0.008440  -0.002549
     3  C    1.106836   0.088551   0.099911  -1.083968   0.030368   0.003029
     4  C   -2.909577   1.072409  -0.433895   0.160304   0.008870  -0.001206
     5  C    0.863605  -1.930058   0.393825  -0.092934  -0.003916   0.000494
     6  C   -0.249112   0.543522  -2.204187   1.538362  -0.008282  -0.002005
     7  C    0.172452  -0.331897   1.541696  -3.305537  -0.100477   0.015972
     8  C   -0.440756  -0.027358  -0.007703   1.131325   0.241768  -0.026318
     9  C   -0.086960   0.004362  -0.091008   0.838212  -0.311212   0.118908
    10  N    0.000954   0.002709   0.030430  -0.447083   0.014377  -0.132046
    11  C    0.011462   0.002665   0.005943  -0.096171   0.928862   0.781739
    12  C   -0.002050  -0.000056  -0.000653   0.013985  -2.598322   1.540818
    13  C   -0.000829  -0.000035   0.000066   0.023551   0.657157  -5.513936
    14  C    0.001017  -0.000137   0.000868  -0.016143   0.011104   0.724046
    15  N    0.000008   0.000001  -0.000019   0.001808  -0.022529   0.388595
    16  C    0.000008  -0.000001   0.000001   0.000113  -0.000055   0.152180
    17  C    0.000002  -0.000000   0.000001  -0.000030  -0.000289   0.040565
    18  C    0.000005  -0.000000  -0.000004   0.000485   0.020581  -0.317056
    19  C    0.000000  -0.000000   0.000003  -0.000197   0.006699   0.024291
    20  C   -0.001916   0.000865  -0.001456   0.010493  -0.296224   0.737456
    21  C    0.004579  -0.003055   0.006213  -0.073537   0.730609  -1.101091
    22  O    0.003100  -0.001089   0.001004   0.008248  -0.039254   0.021130
    23  C    0.057203   0.020386  -0.005441  -0.114134  -0.099808   0.007756
    24  C   -0.150690  -0.034514   0.017324   0.063235  -0.023401  -0.005342
    25  H    3.400939  -0.207900  -0.028415   0.008706   0.000165  -0.000043
    26  H   -0.207900   2.802129  -0.178782  -0.023473   0.000125   0.000004
    27  H   -0.028415  -0.178782   2.850938  -0.232445   0.001321  -0.000132
    28  H    0.008706  -0.023473  -0.232445   3.852243  -0.020000   0.004624
    29  H    0.000165   0.000125   0.001321  -0.020000   3.232016  -0.477337
    30  H   -0.000043   0.000004  -0.000132   0.004624  -0.477337   5.992666
    31  H    0.000004   0.000002  -0.000008   0.000134  -0.002605   0.024032
    32  H    0.000001  -0.000000   0.000001  -0.000036   0.002947  -0.022875
    33  H   -0.000001   0.000001  -0.000002  -0.000059   0.001403   0.000911
    34  H    0.000000  -0.000000  -0.000000   0.000008  -0.000184   0.003774
    35  H    0.000000  -0.000000   0.000000  -0.000013  -0.000118   0.000297
    36  H    0.000001  -0.000000   0.000007  -0.000332   0.013796  -0.318264
    37  H    0.000000   0.000000  -0.000001   0.000086  -0.001979   0.044576
    38  H    0.000000   0.000000  -0.000003   0.000051  -0.003853  -0.105179
    39  H    0.000000  -0.000000   0.000000  -0.000023   0.001997  -0.003867
    40  H   -0.000000  -0.000000   0.000000  -0.000030   0.001763  -0.022305
    41  H   -0.000066  -0.000043   0.000132   0.000436  -0.005211  -0.059768
    42  H   -0.004508   0.001893  -0.001391   0.006742   0.002367  -0.000553
              31         32         33         34         35         36
     1  O   -0.000026   0.000000  -0.000011  -0.000002   0.000000   0.000001
     2  C    0.004048  -0.000018   0.001730  -0.000037  -0.000092  -0.000011
     3  C   -0.000742  -0.000042  -0.000287  -0.000033   0.000016  -0.000352
     4  C    0.000055   0.000014  -0.000004  -0.000004   0.000001   0.000007
     5  C   -0.000006  -0.000003   0.000017  -0.000001  -0.000002  -0.000008
     6  C    0.000044   0.000002  -0.000006   0.000002   0.000008   0.000157
     7  C    0.000827  -0.000154   0.000181   0.000013  -0.000010  -0.000084
     8  C   -0.001673   0.000326  -0.001400   0.000122   0.000008   0.000903
     9  C   -0.002445   0.000829   0.004217   0.000406  -0.000667  -0.010720
    10  N    0.002497  -0.001355   0.000541  -0.000447   0.000036   0.003122
    11  C   -0.060203   0.014721  -0.030931   0.002316   0.003547  -0.015635
    12  C   -0.002239   0.000681   0.029205   0.003281  -0.008256  -0.077014
    13  C   -0.057531   0.031868  -0.079385  -0.001378   0.009812   0.152871
    14  C    0.519139  -0.228407   0.079231  -0.042077  -0.038812   0.807814
    15  N   -0.297803  -0.343891  -0.237741   0.234179  -0.110774  -0.498715
    16  C   -0.537130   0.015064   0.308620   0.002135  -0.111237  -0.288957
    17  C    0.059471  -0.306753   0.202975   0.213385   0.132918   0.043605
    18  C   -0.308022   0.329700   0.004300   0.011992  -0.100591  -0.476897
    19  C    0.047148  -0.034278   0.002296  -0.013985   0.025277   0.030051
    20  C    0.343625   0.006251  -0.053267   0.023560   0.178332  -0.200541
    21  C   -0.196236   0.044311  -0.036654  -0.010221  -0.006147  -0.022559
    22  O    0.009533   0.000234   0.007222  -0.000647  -0.000043  -0.000466
    23  C    0.044637  -0.008299  -0.004688  -0.002666   0.002974  -0.000337
    24  C   -0.000819   0.000078  -0.001890   0.000095   0.000360   0.000324
    25  H    0.000004   0.000001  -0.000001   0.000000   0.000000   0.000001
    26  H    0.000002  -0.000000   0.000001  -0.000000  -0.000000  -0.000000
    27  H   -0.000008   0.000001  -0.000002  -0.000000   0.000000   0.000007
    28  H    0.000134  -0.000036  -0.000059   0.000008  -0.000013  -0.000332
    29  H   -0.002605   0.002947   0.001403  -0.000184  -0.000118   0.013796
    30  H    0.024032  -0.022875   0.000911   0.003774   0.000297  -0.318264
    31  H    3.107230  -0.925975  -0.115667  -0.161338   0.236158  -0.027631
    32  H   -0.925975   3.054394   0.161864  -0.145837  -0.185892   0.038253
    33  H   -0.115667   0.161864   2.004005  -0.385280  -0.347935  -0.001329
    34  H   -0.161338  -0.145837  -0.385280   2.039367  -0.444436   0.001527
    35  H    0.236158  -0.185892  -0.347935  -0.444436   2.135667  -0.011041
    36  H   -0.027631   0.038253  -0.001329   0.001527  -0.011041   3.215516
    37  H    0.036175   0.033598  -0.003863   0.010721  -0.011811  -0.909897
    38  H    0.002395  -0.004312   0.002472  -0.000687  -0.000355  -0.107251
    39  H    0.001519   0.009293  -0.000338  -0.001413   0.001207  -0.173270
    40  H   -0.008910   0.001469  -0.000873   0.000379   0.002384   0.236604
    41  H   -0.310151   0.060467  -0.170204  -0.015178  -0.007116   0.026994
    42  H    0.002420  -0.000021   0.000815  -0.000017   0.000110  -0.000037
              37         38         39         40         41         42
     1  O   -0.000001  -0.000000  -0.000000   0.000000   0.001392  -0.136364
     2  C    0.000124   0.000222   0.000010  -0.000081  -0.052507   0.729762
     3  C   -0.000047  -0.000037   0.000010  -0.000022   0.008037  -0.020079
     4  C    0.000004   0.000023   0.000003  -0.000009  -0.003526   0.062927
     5  C   -0.000001   0.000001  -0.000001   0.000000   0.000600   0.028708
     6  C   -0.000015  -0.000098  -0.000006   0.000020  -0.001100  -0.015004
     7  C   -0.000036  -0.000502  -0.000040   0.000100  -0.010776   0.006531
     8  C    0.000300   0.000778   0.000069  -0.000110   0.040833  -0.234022
     9  C    0.002876  -0.001681  -0.000641  -0.000297  -0.061963   0.345737
    10  N   -0.000076   0.002637  -0.000494   0.000126  -0.070806  -0.050213
    11  C   -0.009193  -0.028297   0.005121  -0.000810   0.546762   0.038160
    12  C   -0.010496  -0.099888  -0.007144   0.024073  -0.627409  -0.006412
    13  C    0.008997   0.104904   0.056826  -0.000043   0.772416  -0.010153
    14  C   -0.146180   0.052597  -0.103803   0.102133  -0.337446   0.021862
    15  N   -0.478507  -0.314022   0.286319  -0.176422   0.466229  -0.002070
    16  C    0.371587   0.019895   0.012452  -0.093444  -0.051651   0.000410
    17  C   -0.069273   0.001755  -0.010615   0.014998  -0.038113   0.000023
    18  C    0.092206   0.324097  -0.062920  -0.035324   0.197308  -0.000341
    19  C   -0.334475   0.120777   0.251522   0.146955   0.019091   0.000039
    20  C   -0.034194  -0.142628   0.018031   0.018530  -5.498568   0.166110
    21  C    0.073623   0.066075  -0.002120  -0.018573   2.417597  -0.742439
    22  O   -0.001268  -0.000362  -0.000184   0.000383  -0.612894  -0.347748
    23  C   -0.001919  -0.002005   0.000133   0.000483  -0.749580   1.916627
    24  C   -0.000371   0.000168   0.000047   0.000015   0.116614  -3.071771
    25  H    0.000000   0.000000   0.000000  -0.000000  -0.000066  -0.004508
    26  H    0.000000   0.000000  -0.000000  -0.000000  -0.000043   0.001893
    27  H   -0.000001  -0.000003   0.000000   0.000000   0.000132  -0.001391
    28  H    0.000086   0.000051  -0.000023  -0.000030   0.000436   0.006742
    29  H   -0.001979  -0.003853   0.001997   0.001763  -0.005211   0.002367
    30  H    0.044576  -0.105179  -0.003867  -0.022305  -0.059768  -0.000553
    31  H    0.036175   0.002395   0.001519  -0.008910  -0.310151   0.002420
    32  H    0.033598  -0.004312   0.009293   0.001469   0.060467  -0.000021
    33  H   -0.003863   0.002472  -0.000338  -0.000873  -0.170204   0.000815
    34  H    0.010721  -0.000687  -0.001413   0.000379  -0.015178  -0.000017
    35  H   -0.011811  -0.000355   0.001207   0.002384  -0.007116   0.000110
    36  H   -0.909897  -0.107251  -0.173270   0.236604   0.026994  -0.000037
    37  H    3.130066   0.173278  -0.158199  -0.178907  -0.022013   0.000019
    38  H    0.173278   2.013305  -0.404972  -0.331803  -0.005593   0.000014
    39  H   -0.158199  -0.404972   2.051940  -0.443680   0.002754   0.000001
    40  H   -0.178907  -0.331803  -0.443680   2.098063   0.001990  -0.000006
    41  H   -0.022013  -0.005593   0.002754   0.001990   6.705200  -0.045189
    42  H    0.000019   0.000014   0.000001  -0.000006  -0.045189   3.372134
 Mulliken charges:
               1
     1  O   -0.730147
     2  C   -0.873021
     3  C    2.061061
     4  C    0.432788
     5  C    0.338236
     6  C   -0.219835
     7  C    1.155728
     8  C    1.546030
     9  C   -0.284534
    10  N   -0.162770
    11  C    0.349093
    12  C    0.405907
    13  C    1.834462
    14  C    0.523686
    15  N   -0.111314
    16  C    0.862640
    17  C    1.259072
    18  C    0.958019
    19  C    1.236230
    20  C    1.741877
    21  C   -0.026853
    22  O   -0.513798
    23  C    0.068893
    24  C    0.933606
    25  H   -1.024855
    26  H   -0.755468
    27  H   -0.789065
    28  H   -1.095589
    29  H   -0.901537
    30  H   -1.516012
    31  H   -0.423933
    32  H   -0.598218
    33  H   -0.340189
    34  H   -0.321397
    35  H   -0.343763
    36  H   -0.430206
    37  H   -0.605512
    38  H   -0.331917
    39  H   -0.325519
    40  H   -0.338820
    41  H   -1.627983
    42  H   -1.015074
 Sum of Mulliken charges =  -0.00000
 Mulliken charges with hydrogens summed into heavy atoms:
               1
     1  O   -0.730147
     2  C   -0.873021
     3  C    2.061061
     4  C   -0.592067
     5  C   -0.417232
     6  C   -1.008899
     7  C    0.060139
     8  C    1.546030
     9  C   -0.284534
    10  N   -0.162770
    11  C    0.349093
    12  C   -0.495630
    13  C    0.318451
    14  C    0.523686
    15  N   -0.111314
    16  C   -0.159511
    17  C    0.253723
    18  C   -0.077700
    19  C    0.239974
    20  C    0.113894
    21  C   -0.026853
    22  O   -0.513798
    23  C    0.068893
    24  C   -0.081468
 Electronic spatial extent (au):  <R**2>=          11103.5888
 Charge=             -0.0000 electrons
 Dipole moment (field-independent basis, Debye):
    X=            -13.0117    Y=             -4.6046    Z=             -0.5422  Tot=             13.8131
 Quadrupole moment (field-independent basis, Debye-Ang):
   XX=           -117.5723   YY=           -145.0405   ZZ=           -145.6900
   XY=            -27.4816   XZ=             -2.7666   YZ=              0.1184
 Traceless Quadrupole moment (field-independent basis, Debye-Ang):
   XX=             18.5287   YY=             -8.9396   ZZ=             -9.5891
   XY=            -27.4816   XZ=             -2.7666   YZ=              0.1184
 Octapole moment (field-independent basis, Debye-Ang**2):
  XXX=           -322.0486  YYY=            -52.7774  ZZZ=              2.6585  XYY=            -93.0364
  XXY=           -138.5360  XXZ=            -16.4644  XZZ=            -18.8730  YZZ=              8.1754
  YYZ=             -7.7150  XYZ=             -9.8694
 Hexadecapole moment (field-independent basis, Debye-Ang**3):
 XXXX=         -11480.8963 YYYY=          -2159.1638 ZZZZ=           -328.3881 XXXY=           -725.7272
 XXXZ=            -64.3097 YYYX=           -279.7721 YYYZ=              8.6285 ZZZX=              4.8332
 ZZZY=              0.3730 XXYY=          -2631.4623 XXZZ=          -2306.0744 YYZZ=           -430.8091
 XXYZ=              3.3209 YYXZ=            -34.5502 ZZXY=             12.9595
 N-N= 1.893070926914D+03 E-N=-6.186570610493D+03  KE= 1.026506085508D+03
 Leave Link  601 at Thu Dec 14 22:41:31 2023, MaxMem=  2147483648 cpu:               4.2 elap:               0.3
 (Enter /opt/asn/apps/gaussian_g16c01_avx2/g16/l9999.exe)
 Electronic transition elements 
                 1             2             3             4             5 
      1  -0.103246D+04 -0.103241D+04 -0.103241D+04 -0.103239D+04 -0.103238D+04
      2   0.000000D+00  0.404576D+01  0.000000D+00  0.000000D+00  0.136002D+00
      3   0.000000D+00 -0.580376D+00  0.000000D+00  0.000000D+00  0.202474D+00
      4   0.000000D+00  0.811998D-01  0.000000D+00  0.000000D+00 -0.245174D-01
      5   0.000000D+00 -0.385983D+00  0.000000D+00  0.000000D+00 -0.180324D-01
      6   0.000000D+00  0.552520D-01  0.000000D+00  0.000000D+00 -0.269730D-01
      7   0.000000D+00 -0.776423D-02  0.000000D+00  0.000000D+00  0.330723D-02
      8   0.000000D+00 -0.100788D-01  0.000000D+00  0.000000D+00 -0.567897D-02
      9   0.000000D+00 -0.998034D-01  0.000000D+00  0.000000D+00 -0.512924D-01
     10   0.000000D+00 -0.878196D+00  0.000000D+00  0.000000D+00 -0.406023D+00
     11   0.000000D+00  0.288443D+00  0.000000D+00  0.000000D+00 -0.619606D+00
     12   0.000000D+00  0.216723D+00  0.000000D+00  0.000000D+00 -0.310687D+00
     13   0.000000D+00 -0.277360D-01  0.000000D+00  0.000000D+00 -0.227628D-01
     14   0.000000D+00 -0.171012D+00  0.000000D+00  0.000000D+00  0.267997D+00
     15   0.000000D+00  0.288697D-01  0.000000D+00  0.000000D+00 -0.231234D-01
     16   0.000000D+00 -0.633636D-01  0.000000D+00  0.000000D+00  0.156435D-01
                 6 
      1  -0.103237D+04
      2   0.473257D-02
      3  -0.273683D-02
      4  -0.211764D-01
      5  -0.728145D-03
      6   0.428772D-03
      7   0.380126D-02
      8  -0.527479D+00
      9   0.531173D+00
     10  -0.600829D-01
     11   0.219562D-02
     12  -0.675078D-02
     13   0.677023D-02
     14  -0.369495D-02
     15  -0.379670D-01
     16  -0.315743D-01
 Unable to Open any file for archive entry.
 1\1\ASC-DMC_AVX2\SP\RCAM-B3LYP TD-FC\Aug-CC-pVDZ\C20H18N2O2\AUBMXB002\
 14-Dec-2023\0\\#p td=(50-50,nstates=3) cam-b3lyp/aug-cc-pvdz scrf=(ief
 pcm,solvent=water)\\ES optimization - water\\0,1\O,0,-4.567055,2.73812
 3,-0.311639\C,0,-3.737508,1.817731,-0.210063\C,0,-4.172967,0.400972,-0
 .06062\C,0,-5.542562,0.100404,-0.034785\C,0,-5.977679,-1.208857,0.1038
 76\C,0,-5.040886,-2.245206,0.219875\C,0,-3.683277,-1.96654,0.196384\C,
 0,-3.228422,-0.64342,0.055934\C,0,-1.797651,-0.337748,0.029525\N,0,-0.
 903788,-1.291289,0.138665\C,0,0.416386,-0.962799,0.109349\C,0,1.424212
 ,-1.944919,0.225065\C,0,2.756098,-1.612898,0.193296\C,0,3.183041,-0.25
 3154,0.042581\N,0,4.505003,0.072696,0.00801\C,0,4.961585,1.446395,-0.2
 41756\C,0,5.083019,2.29283,1.029149\C,0,5.564711,-0.923285,0.221398\C,
 0,6.008551,-1.631056,-1.062139\C,0,2.175015,0.739463,-0.07214\C,0,0.84
 7585,0.374789,-0.039592\O,0,-0.091191,1.365041,-0.148998\C,0,-1.418303
 ,1.054023,-0.119274\C,0,-2.317514,2.070165,-0.231662\H,0,-6.249707,0.9
 15403,-0.125764\H,0,-7.038392,-1.431071,0.122547\H,0,-5.377708,-3.2699
 04,0.328515\H,0,-2.956171,-2.763119,0.285775\H,0,1.119531,-2.979384,0.
 333098\H,0,3.486407,-2.404391,0.267468\H,0,4.295344,1.922496,-0.963028
 \H,0,5.934565,1.375265,-0.732063\H,0,4.119878,2.399773,1.532966\H,0,5.
 449029,3.291256,0.775556\H,0,5.787568,1.842137,1.732602\H,0,5.237909,-
 1.64597,0.970139\H,0,6.41163,-0.394866,0.663638\H,0,5.186713,-2.190376
 ,-1.514675\H,0,6.817002,-2.332127,-0.838247\H,0,6.377694,-0.912258,-1.
 797973\H,0,2.411469,1.788462,-0.168138\H,0,-1.975897,3.092188,-0.34046
 4\\Version=ES64L-G16RevC.01\State=1-A\HF=-1032.5089677\RMSD=9.975e-09\
 PG=C01 [X(C20H18N2O2)]\\@
 The archive entry for this job was punched.


 IT IS WELL TO REMEMBER THAT MAN IS A PART OF NATURE AND THAT HIS WORKS,
 WHATEVER THEY MAY BE, ARE NO MORE "UNNATURAL" THAN 
 THE FLIGHT OF AN EAGLE OR THE PASSAGE OF A TORNADO.

                                    -- CHARLES MCCARRY IN "THE GREAT SOUTHWEST"
 Job cpu time:       0 days 15 hours 14 minutes 44.7 seconds.
 Elapsed time:       0 days  0 hours 57 minutes 22.4 seconds.
 File lengths (MBytes):  RWF=   2508 Int=      0 D2E=      0 Chk=    124 Scr=      2
 Normal termination of Gaussian 16 at Thu Dec 14 22:41:31 2023.
