 Entering Gaussian System, Link 0=/apps/x86-64/apps/gaussian_g16c01_avx2/g16/g16
 Initial command:
 /apps/x86-64/apps/gaussian_g16c01_avx2/g16/l1.exe "/scratch/aubmxb002.gsopfreqwatgjfG16.22285.asax-pbs1/Gau-3114647.inp" -scrdir="/scratch/aubmxb002.gsopfreqwatgjfG16.22285.asax-pbs1/"
 Entering Link 1 = /apps/x86-64/apps/gaussian_g16c01_avx2/g16/l1.exe PID=   3114648.
  
 Copyright (c) 1988-2019, Gaussian, Inc.  All Rights Reserved.
  
 This is part of the Gaussian(R) 16 program.  It is based on
 the Gaussian(R) 09 system (copyright 2009, Gaussian, Inc.),
 the Gaussian(R) 03 system (copyright 2003, Gaussian, Inc.),
 the Gaussian(R) 98 system (copyright 1998, Gaussian, Inc.),
 the Gaussian(R) 94 system (copyright 1995, Gaussian, Inc.),
 the Gaussian 92(TM) system (copyright 1992, Gaussian, Inc.),
 the Gaussian 90(TM) system (copyright 1990, Gaussian, Inc.),
 the Gaussian 88(TM) system (copyright 1988, Gaussian, Inc.),
 the Gaussian 86(TM) system (copyright 1986, Carnegie Mellon
 University), and the Gaussian 82(TM) system (copyright 1983,
 Carnegie Mellon University). Gaussian is a federally registered
 trademark of Gaussian, Inc.
  
 This software contains proprietary and confidential information,
 including trade secrets, belonging to Gaussian, Inc.
  
 This software is provided under written license and may be
 used, copied, transmitted, or stored only in accord with that
 written license.
  
 The following legend is applicable only to US Government
 contracts under FAR:
  
                    RESTRICTED RIGHTS LEGEND
  
 Use, reproduction and disclosure by the US Government is
 subject to restrictions as set forth in subparagraphs (a)
 and (c) of the Commercial Computer Software - Restricted
 Rights clause in FAR 52.227-19.
  
 Gaussian, Inc.
 340 Quinnipiac St., Bldg. 40, Wallingford CT 06492
  
  
 ---------------------------------------------------------------
 Warning -- This program may not be used in any manner that
 competes with the business of Gaussian, Inc. or will provide
 assistance to any competitor of Gaussian, Inc.  The licensee
 of this program is prohibited from giving any competitor of
 Gaussian, Inc. access to this program.  By using this program,
 the user acknowledges that Gaussian, Inc. is engaged in the
 business of creating and licensing software in the field of
 computational chemistry and represents and warrants to the
 licensee that it is not a competitor of Gaussian, Inc. and that
 it will not use this program in any manner prohibited above.
 ---------------------------------------------------------------
  

 Cite this work as:
 Gaussian 16, Revision C.01,
 M. J. Frisch, G. W. Trucks, H. B. Schlegel, G. E. Scuseria, 
 M. A. Robb, J. R. Cheeseman, G. Scalmani, V. Barone, 
 G. A. Petersson, H. Nakatsuji, X. Li, M. Caricato, A. V. Marenich, 
 J. Bloino, B. G. Janesko, R. Gomperts, B. Mennucci, H. P. Hratchian, 
 J. V. Ortiz, A. F. Izmaylov, J. L. Sonnenberg, D. Williams-Young, 
 F. Ding, F. Lipparini, F. Egidi, J. Goings, B. Peng, A. Petrone, 
 T. Henderson, D. Ranasinghe, V. G. Zakrzewski, J. Gao, N. Rega, 
 G. Zheng, W. Liang, M. Hada, M. Ehara, K. Toyota, R. Fukuda, 
 J. Hasegawa, M. Ishida, T. Nakajima, Y. Honda, O. Kitao, H. Nakai, 
 T. Vreven, K. Throssell, J. A. Montgomery, Jr., J. E. Peralta, 
 F. Ogliaro, M. J. Bearpark, J. J. Heyd, E. N. Brothers, K. N. Kudin, 
 V. N. Staroverov, T. A. Keith, R. Kobayashi, J. Normand, 
 K. Raghavachari, A. P. Rendell, J. C. Burant, S. S. Iyengar, 
 J. Tomasi, M. Cossi, J. M. Millam, M. Klene, C. Adamo, R. Cammi, 
 J. W. Ochterski, R. L. Martin, K. Morokuma, O. Farkas, 
 J. B. Foresman, and D. J. Fox, Gaussian, Inc., Wallingford CT, 2019.
 
 ******************************************
 Gaussian 16:  ES64L-G16RevC.01  3-Jul-2019
                27-Feb-2024 
 ******************************************
 %chk=wat-1
 %nprocshared=10
 Will use up to   10 processors via shared memory.
 %mem=10GB
 Default route: MaxDisk=300GB
 ----------------------------------------------------------------------
 #p opt freq b3lyp/6-311++g(d,p) scrf=(smd,solvent=water) geom=connecti
 vity int=(ultrafine,acc2e=12)
 ----------------------------------------------------------------------
 1/18=20,19=15,26=6,38=1,57=2/1,3;
 2/9=110,12=2,17=6,18=5,40=1/2;
 3/5=4,6=6,7=1111,11=2,25=1,27=12,30=1,70=32201,71=1,72=1,74=-5,75=-5/1,2,3;
 4//1;
 5/5=2,38=5,53=1,87=12/2;
 6/7=2,8=2,9=2,10=2,28=1,87=12/1;
 7/87=12/1,2,3,16;
 1/18=20,19=15,26=6/3(2);
 2/9=110/2;
 99//99;
 2/9=110/2;
 3/5=4,6=6,7=1111,11=2,25=1,27=12,30=1,70=32205,71=1,72=1,74=-5,75=-5/1,2,3;
 4/5=5,16=3,69=1/1;
 5/5=2,38=5,53=1,87=12/2;
 7/87=12/1,2,3,16;
 1/18=20,19=15,26=6/3(-5);
 2/9=110/2;
 6/7=2,8=2,9=2,10=2,19=2,28=1,87=12/1;
 99/9=1/99;
 Leave Link    1 at Tue Feb 27 16:53:43 2024, MaxMem=  1342177280 cpu:               0.6 elap:               0.1
 (Enter /apps/x86-64/apps/gaussian_g16c01_avx2/g16/l101.exe)
 --------------------
 GS opt freq in water
 --------------------
 Symbolic Z-matrix:
 Charge =  0 Multiplicity = 1
 O                     1.05869   0.23378  -0.00805 
 C                     2.30714   0.15106  -0.14259 
 C                     3.011    -1.19741   0.04567 
 C                     2.31018  -2.32081   0.3302 
 C                     3.05379  -3.65726   0.51651 
 C                     4.40444  -3.70301   0.3961 
 C                     5.19186  -2.41864   0.07257 
 C                     4.52972  -1.24848  -0.09157 
 C                     5.2836    0.05019  -0.41082 
 N                     6.57516   0.03038  -0.45479 
 C                     7.31043   1.29162  -0.51726 
 C                     8.65326   1.3092   -0.33815 
 C                     9.40646   2.65176  -0.31755 
 C                     8.72432   3.81142  -0.47933 
 N                     9.43594   5.09664  -0.42741 
 C                     8.53137   6.13737   0.08203 
 C                     7.03423   6.49315   0.14211 
 C                     10.59794   4.97765   0.46505 
 C                     12.07527   5.40312   0.55489 
 C                     7.2034    3.78193  -0.72103 
 C                     6.54796   2.59645  -0.77246 
 O                     5.15061   2.57045  -1.08017 
 C                     4.4889    1.36393  -0.65984 
 C                     3.13106   1.40822  -0.50144 
 H                     1.24517  -2.28041   0.42524 
 H                     2.50562  -4.54839   0.74076 
 H                     4.92242  -4.63026   0.52575 
 H                     6.25718  -2.45103  -0.0221 
 H                     9.18852   0.39218  -0.20597 
 H                     10.46654   2.66929  -0.17325 
 H                     8.29082   6.14868  -0.96052 
 H                     8.35428   5.499     0.92228 
 H                     6.77854   7.10306  -0.69904 
 H                     6.83087   7.02861   1.04589 
 H                     6.45308   5.59497   0.12121 
 H                     10.94496   4.37836  -0.35064 
 H                     10.4339   6.01593   0.66494 
 H                     12.69936   4.5943    0.2367 
 H                     12.31173   5.65946   1.56646 
 H                     12.24119   6.2512   -0.07608 
 H                     6.66501   4.69705  -0.85363 
 H                     2.62326   2.3405   -0.63527 
 
 ITRead=  0  0  0  0  0  0  0  0  0  0  0  0  0  0  0  0  0  0  0  0
 ITRead=  0  0  0  0  0  0  0  0  0  0  0  0  0  0  0  0  0  0  0  0
 ITRead=  0  0
 MicOpt= -1 -1 -1 -1 -1 -1 -1 -1 -1 -1 -1 -1 -1 -1 -1 -1 -1 -1 -1 -1
 MicOpt= -1 -1 -1 -1 -1 -1 -1 -1 -1 -1 -1 -1 -1 -1 -1 -1 -1 -1 -1 -1
 MicOpt= -1 -1
 NAtoms=     42 NQM=       42 NQMF=       0 NMMI=      0 NMMIF=      0
                NMic=       0 NMicF=      0.
                    Isotopes and Nuclear Properties:
 (Nuclear quadrupole moments (NQMom) in fm**2, nuclear magnetic moments (NMagM)
  in nuclear magnetons)

  Atom         1           2           3           4           5           6           7           8           9          10
 IAtWgt=          16          12          12          12          12          12          12          12          12          14
 AtmWgt=  15.9949146  12.0000000  12.0000000  12.0000000  12.0000000  12.0000000  12.0000000  12.0000000  12.0000000  14.0030740
 NucSpn=           0           0           0           0           0           0           0           0           0           2
 AtZEff=  -0.0000000  -0.0000000  -0.0000000  -0.0000000  -0.0000000  -0.0000000  -0.0000000  -0.0000000  -0.0000000  -0.0000000
 NQMom=    0.0000000   0.0000000   0.0000000   0.0000000   0.0000000   0.0000000   0.0000000   0.0000000   0.0000000   2.0440000
 NMagM=    0.0000000   0.0000000   0.0000000   0.0000000   0.0000000   0.0000000   0.0000000   0.0000000   0.0000000   0.4037610
 AtZNuc=   8.0000000   6.0000000   6.0000000   6.0000000   6.0000000   6.0000000   6.0000000   6.0000000   6.0000000   7.0000000

  Atom        11          12          13          14          15          16          17          18          19          20
 IAtWgt=          12          12          12          12          14          12          12          12          12          12
 AtmWgt=  12.0000000  12.0000000  12.0000000  12.0000000  14.0030740  12.0000000  12.0000000  12.0000000  12.0000000  12.0000000
 NucSpn=           0           0           0           0           2           0           0           0           0           0
 AtZEff=  -0.0000000  -0.0000000  -0.0000000  -0.0000000  -0.0000000  -0.0000000  -0.0000000  -0.0000000  -0.0000000  -0.0000000
 NQMom=    0.0000000   0.0000000   0.0000000   0.0000000   2.0440000   0.0000000   0.0000000   0.0000000   0.0000000   0.0000000
 NMagM=    0.0000000   0.0000000   0.0000000   0.0000000   0.4037610   0.0000000   0.0000000   0.0000000   0.0000000   0.0000000
 AtZNuc=   6.0000000   6.0000000   6.0000000   6.0000000   7.0000000   6.0000000   6.0000000   6.0000000   6.0000000   6.0000000

  Atom        21          22          23          24          25          26          27          28          29          30
 IAtWgt=          12          16          12          12           1           1           1           1           1           1
 AtmWgt=  12.0000000  15.9949146  12.0000000  12.0000000   1.0078250   1.0078250   1.0078250   1.0078250   1.0078250   1.0078250
 NucSpn=           0           0           0           0           1           1           1           1           1           1
 AtZEff=  -0.0000000  -0.0000000  -0.0000000  -0.0000000  -0.0000000  -0.0000000  -0.0000000  -0.0000000  -0.0000000  -0.0000000
 NQMom=    0.0000000   0.0000000   0.0000000   0.0000000   0.0000000   0.0000000   0.0000000   0.0000000   0.0000000   0.0000000
 NMagM=    0.0000000   0.0000000   0.0000000   0.0000000   2.7928460   2.7928460   2.7928460   2.7928460   2.7928460   2.7928460
 AtZNuc=   6.0000000   8.0000000   6.0000000   6.0000000   1.0000000   1.0000000   1.0000000   1.0000000   1.0000000   1.0000000

  Atom        31          32          33          34          35          36          37          38          39          40
 IAtWgt=           1           1           1           1           1           1           1           1           1           1
 AtmWgt=   1.0078250   1.0078250   1.0078250   1.0078250   1.0078250   1.0078250   1.0078250   1.0078250   1.0078250   1.0078250
 NucSpn=           1           1           1           1           1           1           1           1           1           1
 AtZEff=  -0.0000000  -0.0000000  -0.0000000  -0.0000000  -0.0000000  -0.0000000  -0.0000000  -0.0000000  -0.0000000  -0.0000000
 NQMom=    0.0000000   0.0000000   0.0000000   0.0000000   0.0000000   0.0000000   0.0000000   0.0000000   0.0000000   0.0000000
 NMagM=    2.7928460   2.7928460   2.7928460   2.7928460   2.7928460   2.7928460   2.7928460   2.7928460   2.7928460   2.7928460
 AtZNuc=   1.0000000   1.0000000   1.0000000   1.0000000   1.0000000   1.0000000   1.0000000   1.0000000   1.0000000   1.0000000

  Atom        41          42
 IAtWgt=           1           1
 AtmWgt=   1.0078250   1.0078250
 NucSpn=           1           1
 AtZEff=  -0.0000000  -0.0000000
 NQMom=    0.0000000   0.0000000
 NMagM=    2.7928460   2.7928460
 AtZNuc=   1.0000000   1.0000000
 Leave Link  101 at Tue Feb 27 16:53:44 2024, MaxMem=  1342177280 cpu:               3.6 elap:               0.4
 (Enter /apps/x86-64/apps/gaussian_g16c01_avx2/g16/l103.exe)

 GradGradGradGradGradGradGradGradGradGradGradGradGradGradGradGradGradGrad
 Berny optimization.
 Initialization pass.
                           ----------------------------
                           !    Initial Parameters    !
                           ! (Angstroms and Degrees)  !
 --------------------------                            --------------------------
 ! Name  Definition              Value          Derivative Info.                !
 --------------------------------------------------------------------------------
 ! R1    R(1,2)                  1.2584         estimate D2E/DX2                !
 ! R2    R(2,3)                  1.5327         estimate D2E/DX2                !
 ! R3    R(2,24)                 1.5453         estimate D2E/DX2                !
 ! R4    R(3,4)                  1.3543         estimate D2E/DX2                !
 ! R5    R(3,8)                  1.5258         estimate D2E/DX2                !
 ! R6    R(4,5)                  1.5407         estimate D2E/DX2                !
 ! R7    R(4,25)                 1.07           estimate D2E/DX2                !
 ! R8    R(5,6)                  1.3568         estimate D2E/DX2                !
 ! R9    R(5,26)                 1.07           estimate D2E/DX2                !
 ! R10   R(6,7)                  1.5409         estimate D2E/DX2                !
 ! R11   R(6,27)                 1.07           estimate D2E/DX2                !
 ! R12   R(7,8)                  1.3545         estimate D2E/DX2                !
 ! R13   R(7,28)                 1.07           estimate D2E/DX2                !
 ! R14   R(8,9)                  1.5352         estimate D2E/DX2                !
 ! R15   R(9,10)                 1.2925         estimate D2E/DX2                !
 ! R16   R(9,23)                 1.5555         estimate D2E/DX2                !
 ! R17   R(10,11)                1.4613         estimate D2E/DX2                !
 ! R18   R(11,12)                1.3548         estimate D2E/DX2                !
 ! R19   R(11,21)                1.5327         estimate D2E/DX2                !
 ! R20   R(12,13)                1.5395         estimate D2E/DX2                !
 ! R21   R(12,29)                1.07           estimate D2E/DX2                !
 ! R22   R(13,14)                1.3551         estimate D2E/DX2                !
 ! R23   R(13,30)                1.07           estimate D2E/DX2                !
 ! R24   R(14,15)                1.47           estimate D2E/DX2                !
 ! R25   R(14,20)                1.5403         estimate D2E/DX2                !
 ! R26   R(15,16)                1.47           estimate D2E/DX2                !
 ! R27   R(15,18)                1.47           estimate D2E/DX2                !
 ! R28   R(16,17)                1.54           estimate D2E/DX2                !
 ! R29   R(16,31)                1.07           estimate D2E/DX2                !
 ! R30   R(16,32)                1.07           estimate D2E/DX2                !
 ! R31   R(17,33)                1.07           estimate D2E/DX2                !
 ! R32   R(17,34)                1.07           estimate D2E/DX2                !
 ! R33   R(17,35)                1.07           estimate D2E/DX2                !
 ! R34   R(18,19)                1.54           estimate D2E/DX2                !
 ! R35   R(18,36)                1.07           estimate D2E/DX2                !
 ! R36   R(18,37)                1.07           estimate D2E/DX2                !
 ! R37   R(19,38)                1.07           estimate D2E/DX2                !
 ! R38   R(19,39)                1.07           estimate D2E/DX2                !
 ! R39   R(19,40)                1.07           estimate D2E/DX2                !
 ! R40   R(20,21)                1.3556         estimate D2E/DX2                !
 ! R41   R(20,41)                1.07           estimate D2E/DX2                !
 ! R42   R(21,22)                1.4311         estimate D2E/DX2                !
 ! R43   R(22,23)                1.4388         estimate D2E/DX2                !
 ! R44   R(23,24)                1.3678         estimate D2E/DX2                !
 ! R45   R(24,42)                1.07           estimate D2E/DX2                !
 ! A1    A(1,2,3)              120.0199         estimate D2E/DX2                !
 ! A2    A(1,2,24)             120.0194         estimate D2E/DX2                !
 ! A3    A(3,2,24)             119.9605         estimate D2E/DX2                !
 ! A4    A(2,3,4)              121.1949         estimate D2E/DX2                !
 ! A5    A(2,3,8)              118.3923         estimate D2E/DX2                !
 ! A6    A(4,3,8)              120.4126         estimate D2E/DX2                !
 ! A7    A(3,4,5)              119.6817         estimate D2E/DX2                !
 ! A8    A(3,4,25)             120.1591         estimate D2E/DX2                !
 ! A9    A(5,4,25)             120.1591         estimate D2E/DX2                !
 ! A10   A(4,5,6)              119.9329         estimate D2E/DX2                !
 ! A11   A(4,5,26)             120.0335         estimate D2E/DX2                !
 ! A12   A(6,5,26)             120.0335         estimate D2E/DX2                !
 ! A13   A(5,6,7)              119.9497         estimate D2E/DX2                !
 ! A14   A(5,6,27)             120.0251         estimate D2E/DX2                !
 ! A15   A(7,6,27)             120.0252         estimate D2E/DX2                !
 ! A16   A(6,7,8)              119.7175         estimate D2E/DX2                !
 ! A17   A(6,7,28)             120.1412         estimate D2E/DX2                !
 ! A18   A(8,7,28)             120.1412         estimate D2E/DX2                !
 ! A19   A(3,8,7)              120.3053         estimate D2E/DX2                !
 ! A20   A(3,8,9)              118.6327         estimate D2E/DX2                !
 ! A21   A(7,8,9)              121.0612         estimate D2E/DX2                !
 ! A22   A(8,9,10)             119.0019         estimate D2E/DX2                !
 ! A23   A(8,9,23)             119.7935         estimate D2E/DX2                !
 ! A24   A(10,9,23)            121.2015         estimate D2E/DX2                !
 ! A25   A(9,10,11)            119.4101         estimate D2E/DX2                !
 ! A26   A(10,11,12)           120.2829         estimate D2E/DX2                !
 ! A27   A(10,11,21)           119.4468         estimate D2E/DX2                !
 ! A28   A(12,11,21)           120.2672         estimate D2E/DX2                !
 ! A29   A(11,12,13)           119.8669         estimate D2E/DX2                !
 ! A30   A(11,12,29)           120.0673         estimate D2E/DX2                !
 ! A31   A(13,12,29)           120.065          estimate D2E/DX2                !
 ! A32   A(12,13,14)           119.8943         estimate D2E/DX2                !
 ! A33   A(12,13,30)           120.0525         estimate D2E/DX2                !
 ! A34   A(14,13,30)           120.053          estimate D2E/DX2                !
 ! A35   A(13,14,15)           120.0198         estimate D2E/DX2                !
 ! A36   A(13,14,20)           119.9607         estimate D2E/DX2                !
 ! A37   A(15,14,20)           120.0194         estimate D2E/DX2                !
 ! A38   A(14,15,16)           109.4712         estimate D2E/DX2                !
 ! A39   A(14,15,18)           109.4712         estimate D2E/DX2                !
 ! A40   A(16,15,18)           109.4712         estimate D2E/DX2                !
 ! A41   A(15,16,17)           140.8329         estimate D2E/DX2                !
 ! A42   A(15,16,31)            78.9393         estimate D2E/DX2                !
 ! A43   A(15,16,32)            87.226          estimate D2E/DX2                !
 ! A44   A(17,16,31)            79.4562         estimate D2E/DX2                !
 ! A45   A(17,16,32)            86.9218         estimate D2E/DX2                !
 ! A46   A(31,16,32)           137.2423         estimate D2E/DX2                !
 ! A47   A(16,17,33)           109.4712         estimate D2E/DX2                !
 ! A48   A(16,17,34)           109.4712         estimate D2E/DX2                !
 ! A49   A(16,17,35)           109.4712         estimate D2E/DX2                !
 ! A50   A(33,17,34)           109.4712         estimate D2E/DX2                !
 ! A51   A(33,17,35)           109.4712         estimate D2E/DX2                !
 ! A52   A(34,17,35)           109.4712         estimate D2E/DX2                !
 ! A53   A(15,18,19)           140.4764         estimate D2E/DX2                !
 ! A54   A(15,18,36)            80.7282         estimate D2E/DX2                !
 ! A55   A(15,18,37)            85.0481         estimate D2E/DX2                !
 ! A56   A(19,18,36)            83.5748         estimate D2E/DX2                !
 ! A57   A(19,18,37)            82.4198         estimate D2E/DX2                !
 ! A58   A(36,18,37)           137.3589         estimate D2E/DX2                !
 ! A59   A(18,19,38)           109.4712         estimate D2E/DX2                !
 ! A60   A(18,19,39)           109.4712         estimate D2E/DX2                !
 ! A61   A(18,19,40)           109.4712         estimate D2E/DX2                !
 ! A62   A(38,19,39)           109.4712         estimate D2E/DX2                !
 ! A63   A(38,19,40)           109.4712         estimate D2E/DX2                !
 ! A64   A(39,19,40)           109.4712         estimate D2E/DX2                !
 ! A65   A(14,20,21)           120.0088         estimate D2E/DX2                !
 ! A66   A(14,20,41)           119.9941         estimate D2E/DX2                !
 ! A67   A(21,20,41)           119.9963         estimate D2E/DX2                !
 ! A68   A(11,21,20)           119.8454         estimate D2E/DX2                !
 ! A69   A(11,21,22)           120.4038         estimate D2E/DX2                !
 ! A70   A(20,21,22)           119.7469         estimate D2E/DX2                !
 ! A71   A(21,22,23)           113.6707         estimate D2E/DX2                !
 ! A72   A(9,23,22)            121.3347         estimate D2E/DX2                !
 ! A73   A(9,23,24)            121.0652         estimate D2E/DX2                !
 ! A74   A(22,23,24)           117.5958         estimate D2E/DX2                !
 ! A75   A(2,24,23)            121.9947         estimate D2E/DX2                !
 ! A76   A(2,24,42)            119.0011         estimate D2E/DX2                !
 ! A77   A(23,24,42)           119.0034         estimate D2E/DX2                !
 ! D1    D(1,2,3,4)              1.3628         estimate D2E/DX2                !
 ! D2    D(1,2,3,8)           -178.4843         estimate D2E/DX2                !
 ! D3    D(24,2,3,4)          -178.4728         estimate D2E/DX2                !
 ! D4    D(24,2,3,8)             1.6801         estimate D2E/DX2                !
 ! D5    D(1,2,24,23)         -179.8716         estimate D2E/DX2                !
 ! D6    D(1,2,24,42)           -0.2104         estimate D2E/DX2                !
 ! D7    D(3,2,24,23)           -0.0361         estimate D2E/DX2                !
 ! D8    D(3,2,24,42)          179.6251         estimate D2E/DX2                !
 ! D9    D(2,3,4,5)           -179.8202         estimate D2E/DX2                !
 ! D10   D(2,3,4,25)             0.1748         estimate D2E/DX2                !
 ! D11   D(8,3,4,5)              0.0238         estimate D2E/DX2                !
 ! D12   D(8,3,4,25)          -179.9811         estimate D2E/DX2                !
 ! D13   D(2,3,8,7)            179.7248         estimate D2E/DX2                !
 ! D14   D(2,3,8,9)              0.0239         estimate D2E/DX2                !
 ! D15   D(4,3,8,7)             -0.1235         estimate D2E/DX2                !
 ! D16   D(4,3,8,9)           -179.8245         estimate D2E/DX2                !
 ! D17   D(3,4,5,6)              0.0509         estimate D2E/DX2                !
 ! D18   D(3,4,5,26)          -179.957          estimate D2E/DX2                !
 ! D19   D(25,4,5,6)          -179.9441         estimate D2E/DX2                !
 ! D20   D(25,4,5,26)            0.048          estimate D2E/DX2                !
 ! D21   D(4,5,6,7)             -0.0322         estimate D2E/DX2                !
 ! D22   D(4,5,6,27)           179.9646         estimate D2E/DX2                !
 ! D23   D(26,5,6,7)           179.9758         estimate D2E/DX2                !
 ! D24   D(26,5,6,27)           -0.0275         estimate D2E/DX2                !
 ! D25   D(5,6,7,8)             -0.0664         estimate D2E/DX2                !
 ! D26   D(5,6,7,28)           179.9384         estimate D2E/DX2                !
 ! D27   D(27,6,7,8)           179.9368         estimate D2E/DX2                !
 ! D28   D(27,6,7,28)           -0.0583         estimate D2E/DX2                !
 ! D29   D(6,7,8,3)              0.1416         estimate D2E/DX2                !
 ! D30   D(6,7,8,9)            179.8352         estimate D2E/DX2                !
 ! D31   D(28,7,8,3)          -179.8632         estimate D2E/DX2                !
 ! D32   D(28,7,8,9)            -0.1696         estimate D2E/DX2                !
 ! D33   D(3,8,9,10)           176.169          estimate D2E/DX2                !
 ! D34   D(3,8,9,23)            -3.1864         estimate D2E/DX2                !
 ! D35   D(7,8,9,10)            -3.5296         estimate D2E/DX2                !
 ! D36   D(7,8,9,23)           177.115          estimate D2E/DX2                !
 ! D37   D(8,9,10,11)         -169.0616         estimate D2E/DX2                !
 ! D38   D(23,9,10,11)          10.2844         estimate D2E/DX2                !
 ! D39   D(8,9,23,22)         -174.2774         estimate D2E/DX2                !
 ! D40   D(8,9,23,24)            4.9506         estimate D2E/DX2                !
 ! D41   D(10,9,23,22)           6.3817         estimate D2E/DX2                !
 ! D42   D(10,9,23,24)        -174.3903         estimate D2E/DX2                !
 ! D43   D(9,10,11,12)         168.876          estimate D2E/DX2                !
 ! D44   D(9,10,11,21)         -10.4839         estimate D2E/DX2                !
 ! D45   D(10,11,12,13)       -176.1544         estimate D2E/DX2                !
 ! D46   D(10,11,12,29)          3.5153         estimate D2E/DX2                !
 ! D47   D(21,11,12,13)          3.2002         estimate D2E/DX2                !
 ! D48   D(21,11,12,29)       -177.1301         estimate D2E/DX2                !
 ! D49   D(10,11,21,20)        174.4902         estimate D2E/DX2                !
 ! D50   D(10,11,21,22)         -6.2343         estimate D2E/DX2                !
 ! D51   D(12,11,21,20)         -4.8698         estimate D2E/DX2                !
 ! D52   D(12,11,21,22)        174.4058         estimate D2E/DX2                !
 ! D53   D(11,12,13,14)         -0.0364         estimate D2E/DX2                !
 ! D54   D(11,12,13,30)        179.8098         estimate D2E/DX2                !
 ! D55   D(29,12,13,14)       -179.7061         estimate D2E/DX2                !
 ! D56   D(29,12,13,30)          0.1401         estimate D2E/DX2                !
 ! D57   D(12,13,14,15)        178.5098         estimate D2E/DX2                !
 ! D58   D(12,13,14,20)         -1.6377         estimate D2E/DX2                !
 ! D59   D(30,13,14,15)         -1.3364         estimate D2E/DX2                !
 ! D60   D(30,13,14,20)        178.5162         estimate D2E/DX2                !
 ! D61   D(13,14,15,16)       -150.0737         estimate D2E/DX2                !
 ! D62   D(13,14,15,18)        -30.0737         estimate D2E/DX2                !
 ! D63   D(20,14,15,16)         30.0737         estimate D2E/DX2                !
 ! D64   D(20,14,15,18)        150.0737         estimate D2E/DX2                !
 ! D65   D(13,14,20,21)         -0.0308         estimate D2E/DX2                !
 ! D66   D(13,14,20,41)       -179.6997         estimate D2E/DX2                !
 ! D67   D(15,14,20,21)        179.8218         estimate D2E/DX2                !
 ! D68   D(15,14,20,41)          0.1529         estimate D2E/DX2                !
 ! D69   D(14,15,16,17)        -28.0138         estimate D2E/DX2                !
 ! D70   D(14,15,16,31)        -85.6582         estimate D2E/DX2                !
 ! D71   D(14,15,16,32)         53.672          estimate D2E/DX2                !
 ! D72   D(18,15,16,17)       -148.0138         estimate D2E/DX2                !
 ! D73   D(18,15,16,31)        154.3418         estimate D2E/DX2                !
 ! D74   D(18,15,16,32)        -66.328          estimate D2E/DX2                !
 ! D75   D(14,15,18,19)        138.7186         estimate D2E/DX2                !
 ! D76   D(14,15,18,36)         70.8076         estimate D2E/DX2                !
 ! D77   D(14,15,18,37)       -149.5262         estimate D2E/DX2                !
 ! D78   D(16,15,18,19)       -101.2814         estimate D2E/DX2                !
 ! D79   D(16,15,18,36)       -169.1924         estimate D2E/DX2                !
 ! D80   D(16,15,18,37)        -29.5262         estimate D2E/DX2                !
 ! D81   D(15,16,17,33)        -91.8988         estimate D2E/DX2                !
 ! D82   D(15,16,17,34)        148.1012         estimate D2E/DX2                !
 ! D83   D(15,16,17,35)         28.1012         estimate D2E/DX2                !
 ! D84   D(31,16,17,33)        -34.4096         estimate D2E/DX2                !
 ! D85   D(31,16,17,34)       -154.4096         estimate D2E/DX2                !
 ! D86   D(31,16,17,35)         85.5904         estimate D2E/DX2                !
 ! D87   D(32,16,17,33)       -173.6916         estimate D2E/DX2                !
 ! D88   D(32,16,17,34)         66.3084         estimate D2E/DX2                !
 ! D89   D(32,16,17,35)        -53.6916         estimate D2E/DX2                !
 ! D90   D(15,18,19,38)        -98.104          estimate D2E/DX2                !
 ! D91   D(15,18,19,39)        141.896          estimate D2E/DX2                !
 ! D92   D(15,18,19,40)         21.896          estimate D2E/DX2                !
 ! D93   D(36,18,19,38)        -31.1376         estimate D2E/DX2                !
 ! D94   D(36,18,19,39)       -151.1376         estimate D2E/DX2                !
 ! D95   D(36,18,19,40)         88.8624         estimate D2E/DX2                !
 ! D96   D(37,18,19,38)       -170.7584         estimate D2E/DX2                !
 ! D97   D(37,18,19,39)         69.2416         estimate D2E/DX2                !
 ! D98   D(37,18,19,40)        -50.7584         estimate D2E/DX2                !
 ! D99   D(14,20,21,11)          3.1773         estimate D2E/DX2                !
 ! D100  D(14,20,21,22)       -176.1031         estimate D2E/DX2                !
 ! D101  D(41,20,21,11)       -177.1538         estimate D2E/DX2                !
 ! D102  D(41,20,21,22)          3.5658         estimate D2E/DX2                !
 ! D103  D(11,21,22,23)         21.1051         estimate D2E/DX2                !
 ! D104  D(20,21,22,23)       -159.6186         estimate D2E/DX2                !
 ! D105  D(21,22,23,9)         -21.7222         estimate D2E/DX2                !
 ! D106  D(21,22,23,24)        159.024          estimate D2E/DX2                !
 ! D107  D(9,23,24,2)           -3.2731         estimate D2E/DX2                !
 ! D108  D(9,23,24,42)         177.0657         estimate D2E/DX2                !
 ! D109  D(22,23,24,2)         175.9829         estimate D2E/DX2                !
 ! D110  D(22,23,24,42)         -3.6783         estimate D2E/DX2                !
 --------------------------------------------------------------------------------
 Trust Radius=3.00D-01 FncErr=5.00D-06 GrdErr=5.00D-06 EigMax=2.50D+02 EigMin=1.00D-04
 Number of steps in this run=    242 maximum allowed number of steps=    252.
 GradGradGradGradGradGradGradGradGradGradGradGradGradGradGradGradGradGrad

 Leave Link  103 at Tue Feb 27 16:53:44 2024, MaxMem=  1342177280 cpu:               0.2 elap:               0.0
 (Enter /apps/x86-64/apps/gaussian_g16c01_avx2/g16/l202.exe)
                          Input orientation:                          
 ---------------------------------------------------------------------
 Center     Atomic      Atomic             Coordinates (Angstroms)
 Number     Number       Type             X           Y           Z
 ---------------------------------------------------------------------
      1          8           0        1.058686    0.233783   -0.008054
      2          6           0        2.307136    0.151057   -0.142588
      3          6           0        3.011004   -1.197412    0.045666
      4          6           0        2.310179   -2.320814    0.330205
      5          6           0        3.053786   -3.657256    0.516512
      6          6           0        4.404437   -3.703012    0.396099
      7          6           0        5.191864   -2.418642    0.072569
      8          6           0        4.529721   -1.248479   -0.091567
      9          6           0        5.283603    0.050188   -0.410823
     10          7           0        6.575158    0.030382   -0.454792
     11          6           0        7.310431    1.291621   -0.517265
     12          6           0        8.653261    1.309203   -0.338146
     13          6           0        9.406462    2.651757   -0.317546
     14          6           0        8.724319    3.811419   -0.479326
     15          7           0        9.435941    5.096642   -0.427414
     16          6           0        8.531368    6.137370    0.082031
     17          6           0        7.034233    6.493147    0.142108
     18          6           0       10.597945    4.977646    0.465047
     19          6           0       12.075275    5.403115    0.554886
     20          6           0        7.203403    3.781925   -0.721028
     21          6           0        6.547963    2.596453   -0.772459
     22          8           0        5.150611    2.570451   -1.080171
     23          6           0        4.488904    1.363929   -0.659842
     24          6           0        3.131057    1.408225   -0.501443
     25          1           0        1.245174   -2.280413    0.425243
     26          1           0        2.505617   -4.548391    0.740761
     27          1           0        4.922420   -4.630257    0.525751
     28          1           0        6.257176   -2.451028   -0.022103
     29          1           0        9.188519    0.392181   -0.205974
     30          1           0       10.466544    2.669288   -0.173253
     31          1           0        8.290818    6.148678   -0.960518
     32          1           0        8.354281    5.498997    0.922280
     33          1           0        6.778539    7.103058   -0.699040
     34          1           0        6.830868    7.028607    1.045891
     35          1           0        6.453075    5.594972    0.121214
     36          1           0       10.944959    4.378365   -0.350638
     37          1           0       10.433900    6.015929    0.664943
     38          1           0       12.699358    4.594303    0.236701
     39          1           0       12.311730    5.659459    1.566458
     40          1           0       12.241194    6.251203   -0.076080
     41          1           0        6.665014    4.697050   -0.853631
     42          1           0        2.623265    2.340500   -0.635267
 ---------------------------------------------------------------------
                    Distance matrix (angstroms):
                    1          2          3          4          5
     1  O    0.000000
     2  C    1.258400   0.000000
     3  C    2.421311   1.532722   0.000000
     4  C    2.864719   2.516682   1.354308   0.000000
     5  C    4.404063   3.936387   2.504867   1.540695   0.000000
     6  C    5.182252   4.420713   2.888337   2.510126   1.356780
     7  C    4.911723   3.869277   2.499656   2.894833   2.510503
     8  C    3.775203   2.627011   1.525760   2.500832   2.889697
     9  C    4.248041   2.990231   2.632413   3.874536   4.424610
    10  N    5.538268   4.281126   3.802780   4.932990   5.190584
    11  C    6.361024   5.145311   4.999725   6.226589   6.609016
    12  C    7.677438   6.453901   6.185911   7.338829   7.533277
    13  C    8.696422   7.528914   7.473280   8.689263   8.991985
    14  C    8.472514   7.395395   7.616165   8.910713   9.430150
    15  N    9.695445   8.681002   9.006594  10.313541  10.874448
    16  C    9.523730   8.638719   9.180129  10.502651  11.230644
    17  C    8.655019   7.915087   8.679883  10.001899  10.909391
    18  C   10.664216   9.612631   9.791266  11.044128  11.466407
    19  C   12.182123  11.112476  11.224405  12.452577  12.785893
    20  C    7.131283   6.123007   6.554222   7.892538   8.607684
    21  C    6.024839   4.935718   5.250983   6.584391   7.278708
    22  O    4.832525   3.849399   4.476853   5.829381   6.762425
    23  C    3.669939   2.549258   3.040131   4.393673   5.353098
    24  C    2.432585   1.545346   2.665161   3.907839   5.167330
    25  H    2.558066   2.713345   2.105974   1.070000   2.274886
    26  H    5.052081   4.785866   3.459427   2.273512   1.070000
    27  H    6.234763   5.490660   3.958336   3.492216   2.106801
    28  H    5.850872   4.731615   3.480486   3.964828   3.465082
    29  H    8.133784   6.885897   6.383715   7.413460   7.386126
    30  H    9.719401   8.539224   8.401450   9.575013   9.769846
    31  H    9.391320   8.511457   9.102410  10.448268  11.214475
    32  H    9.045093   8.142626   8.611676   9.901069  10.587580
    33  H    8.965552   8.284528   9.145857  10.480217  11.451450
    34  H    8.977668   8.317290   9.124648  10.409635  11.346111
    35  H    7.606477   6.847964   7.615119   8.936830   9.864843
    36  H   10.725359   9.619013   9.705359  10.949976  11.295741
    37  H   11.035433  10.054507  10.368952  11.645092  12.167933
    38  H   12.432992  11.308606  11.289139  12.480490  12.696596
    39  H   12.591586  11.547953  11.654741  12.854731  13.176231
    40  H   12.698915  11.657688  11.861412  13.125151  13.525427
    41  H    7.215724   6.337408   6.993226   8.343649   9.203949
    42  H    2.698066   2.266347   3.623649   4.770535   6.122501
                    6          7          8          9         10
     6  C    0.000000
     7  C    1.540882   0.000000
     8  C    2.505643   1.354495   0.000000
     9  C    3.938346   2.517381   1.535187   0.000000
    10  N    4.401622   2.861701   2.439515   1.292455   0.000000
    11  C    5.850247   4.313036   3.790208   2.379184   1.461250
    12  C    6.611650   5.103605   4.858613   3.597915   2.442847
    13  C    8.118660   6.604845   6.248641   4.875944   3.860923
    14  C    8.711740   7.183069   6.583887   5.098046   4.349222
    15  N   10.169961   8.645327   8.027724   6.535203   5.818232
    16  C   10.675360   9.184646   8.402028   6.916984   6.435079
    17  C   10.532900   9.100503   8.140022   6.699414   6.506487
    18  C   10.663869   9.169778   8.711933   7.299946   6.442386
    19  C   11.907498  10.430430  10.079533   8.701335   7.754805
    20  C    8.068857   6.566820   5.731471   4.208054   3.813089
    21  C    6.755996   5.263483   4.395499   2.865807   2.585802
    22  O    6.487871   5.120699   3.993377   2.611022   2.978654
    23  C    5.176488   3.916430   2.673813   1.555465   2.484522
    24  C    5.343390   4.384213   3.030236   2.546749   3.709779
    25  H    3.464908   3.964827   3.481412   4.737048   5.875625
    26  H    2.106888   3.492597   3.959696   5.494569   6.241448
    27  H    1.070000   2.273591   3.460017   4.786877   5.041286
    28  H    2.274862   1.070000   2.105956   2.712016   2.538844
    29  H    6.326178   4.894033   4.940572   3.925211   2.649993
    30  H    8.813597   7.332783   7.113468   5.811970   4.710198
    31  H   10.677085   9.168956   8.343791   6.821809   6.374385
    32  H   10.027717   8.568075   7.821993   6.394978   5.913320
    33  H   11.117861   9.683785   8.670315   7.215322   7.079814
    34  H   11.021680   9.637645   8.665981   7.294818   7.161885
    35  H    9.524966   8.112400   7.111778   5.691691   5.595654
    36  H   10.423277   8.914960   8.537199   7.126548   6.165303
    37  H   11.440476   9.948459   9.391659   7.954426   7.209054
    38  H   11.733565  10.274765  10.049320   8.721335   7.668987
    39  H   12.310600  10.871058  10.536997   9.206960   8.287352
    40  H   12.677701  11.175033  10.756964   9.325916   8.422944
    41  H    8.788235   7.325374   6.363139   4.868028   4.684542
    42  H    6.384382   5.454189   4.100116   3.517571   4.581122
                   11         12         13         14         15
    11  C    0.000000
    12  C    1.354837   0.000000
    13  C    2.506632   1.539542   0.000000
    14  C    2.889619   2.507203   1.355104   0.000000
    15  N    4.359364   3.868495   2.447530   1.470000   0.000000
    16  C    5.033004   4.847949   3.615930   2.400500   1.470000
    17  C    5.250422   5.452080   4.538175   3.230207   2.835980
    18  C    5.035818   4.228994   2.727973   2.400500   1.470000
    19  C    6.384170   5.409973   3.931115   3.851234   2.832830
    20  C    2.500918   2.891892   2.508694   1.540284   2.607473
    21  C    1.532667   2.505578   2.895000   2.509700   3.835416
    22  O    2.572371   3.796038   4.324405   3.830457   5.017149
    23  C    2.826053   4.177123   5.094905   4.895052   6.201641
    24  C    4.181030   5.525505   6.400070   6.087726   7.304893
    25  H    7.101767   8.267276   9.564762   9.688460  11.056068
    26  H    7.666460   8.559730  10.029148  10.490343  11.934014
    27  H    6.469862   7.067013   8.593342   9.312707  10.765360
    28  H    3.919433   4.469949   6.003642   6.746413   8.199766
    29  H    2.105495   1.070000   2.272803   3.461415   4.716165
    30  H    3.460832   2.272667   1.070000   2.105586   2.649300
    31  H    4.974800   4.892773   3.726463   2.425334   1.643863
    32  H    4.567705   4.385481   3.278876   2.224713   1.775825
    33  H    5.838557   6.100294   5.183203   3.830042   3.340848
    34  H    5.965438   6.160216   5.258276   4.032585   3.562236
    35  H    4.434134   4.839384   4.192555   2.949619   3.073567
    36  H    4.771326   3.830378   2.312843   2.295481   1.673007
    37  H    5.785565   5.131289   3.652200   3.015275   1.741911
    38  H    6.365273   5.243399   3.863138   4.114188   3.367980
    39  H    6.959375   5.994717   4.586536   4.524378   3.544354
    40  H    7.007462   6.112717   4.588030   4.299251   3.053832
    41  H    3.482334   3.961863   3.462102   2.272703   2.831849
    42  H    4.804540   6.124762   6.797764   6.277800   7.352012
                   16         17         18         19         20
    16  C    0.000000
    17  C    1.540000   0.000000
    18  C    2.400500   3.886010   0.000000
    19  C    3.649931   5.174037   1.540000   0.000000
    20  C    2.820730   2.850324   3.789384   5.290685   0.000000
    21  C    4.147547   4.032011   4.858380   6.339588   1.355578
    22  O    5.050064   4.519905   6.152701   7.658222   2.410520
    23  C    6.299019   5.781929   7.186425   8.680070   3.635788
    24  C    7.201987   6.442466   8.332423   9.852614   4.718757
    25  H   11.138469  10.515166  11.838721  13.279477   8.577084
    26  H   12.285321  11.949156  12.502286  13.807439   9.674719
    27  H   11.364999  11.328595  11.159170  12.322043   8.804666
    28  H    8.885009   8.979368   8.617702   9.791362   6.342992
    29  H    5.789818   6.479498   4.843887   5.832816   3.961860
    30  H    3.979657   5.148020   2.398585   3.254538   3.490860
    31  H    1.070000   1.706883   2.954046   4.144204   2.615596
    32  H    1.070000   1.827438   2.348382   3.740317   2.640704
    33  H    2.148263   1.070000   4.523310   5.702416   3.348271
    34  H    2.148263   1.070000   4.328359   5.512451   3.715068
    35  H    2.148263   1.070000   4.204671   5.642164   2.135299
    36  H    3.017735   4.473129   1.070000   1.774176   3.806859
    37  H    1.993530   3.472583   1.070000   1.755495   4.165069
    38  H    4.447148   5.975634   2.148263   1.070000   5.637617
    39  H    4.089383   5.529537   2.148263   1.070000   5.903620
    40  H    3.714937   5.217143   2.148263   1.070000   5.647356
    41  H    2.536387   2.086572   4.157594   5.635013   1.070000
    42  H    7.059492   6.107817   8.471172  10.006826   4.802367
                   21         22         23         24         25
    21  C    0.000000
    22  O    1.431068   0.000000
    23  C    2.402400   1.438829   0.000000
    24  C    3.627752   2.400894   1.367772   0.000000
    25  H    7.303279   6.406995   4.998041   4.245156   0.000000
    26  H    8.347407   7.809590   6.391451   6.116823   2.613809
    27  H    7.520178   7.381142   6.125670   6.381800   4.365090
    28  H    5.111229   5.249690   4.252928   4.989611   5.034818
    29  H    3.486009   4.670522   4.820443   6.149186   8.404637
    30  H    3.964798   5.393645   6.137826   7.450325  10.482910
    31  H    3.961213   4.762239   6.118724   7.021807  11.072985
    32  H    3.815716   4.780136   5.877333   6.785534  10.550150
    33  H    4.513097   4.831143   6.179124   6.765670  10.951332
    34  H    4.799002   5.217141   6.362617   6.904458  10.873961
    35  H    3.130299   3.505348   4.729666   5.380739   9.446499
    36  H    4.763058   6.113530   7.131836   8.360714  11.790978
    37  H    5.372099   6.544454   7.664146   8.713375  12.382222
    38  H    6.545950   7.925510   8.868521  10.111791  13.360225
    39  H    6.933509   8.235790   9.198076  10.326371  13.667940
    40  H    6.801104   8.051863   9.182822  10.326178  13.926674
    41  H    2.105421   2.620527   3.985312   4.840378   8.927216
    42  H    3.935428   2.576489   2.105921   1.070000   4.937272
                   26         27         28         29         30
    26  H    0.000000
    27  H    2.427729   0.000000
    28  H    4.365213   2.613572   0.000000
    29  H    8.364612   6.630226   4.087837   0.000000
    30  H   10.784557   9.192893   6.630178   2.611443   0.000000
    31  H   12.279665  11.390370   8.886578   5.874731   4.178483
    32  H   11.627116  10.702182   8.276027   5.296082   3.697175
    33  H   12.493485  11.942193   9.592217   7.147516   5.791040
    34  H   12.362354  11.825474   9.556842   7.153170   5.805869
    35  H   10.902022  10.347070   8.049660   5.887167   4.975366
    36  H   12.332908  10.871721   8.289986   4.358403   1.783617
    37  H   13.208644  11.989039   9.466067   5.825463   3.450166
    38  H   13.702382  12.068837   9.550151   5.493613   2.976441
    39  H   14.178922  12.710752  10.245055   6.374965   3.920769
    40  H   14.562964  13.127560  10.561260   6.607862   3.998617
    41  H   10.262595   9.588430   7.207829   5.031842   4.361922
    42  H    7.025961   7.431389   6.044835   6.861691   7.863751
                   31         32         33         34         35
    31  H    0.000000
    32  H    1.992748   0.000000
    33  H    1.807263   2.772121   0.000000
    34  H    2.632757   2.162354   1.747303   0.000000
    35  H    2.203187   2.065309   1.747303   1.747303   0.000000
    36  H    3.248142   3.096410   4.990430   5.089188   4.677585
    37  H    2.693055   2.158299   4.050181   3.761978   4.039779
    38  H    4.825416   4.490901   6.498120   6.404671   6.326984
    39  H    4.774167   4.012744   6.150826   5.673218   6.034627
    40  H    4.049470   4.082968   5.563661   5.579857   5.828540
    41  H    2.182174   2.578876   2.413640   3.011951   1.342201
    42  H    6.835873   6.726560   6.320785   6.519859   5.082450
                   36         37         38         39         40
    36  H    0.000000
    37  H    1.993540   0.000000
    38  H    1.862662   2.708637   0.000000
    39  H    2.680395   2.113302   1.747303   0.000000
    40  H    2.294151   1.967430   1.747303   1.747303   0.000000
    41  H    4.321168   4.272003   6.132918   6.218397   5.840698
    42  H    8.572311   8.729567  10.361834  10.475182  10.397636
                   41         42
    41  H    0.000000
    42  H    4.683668   0.000000
 Stoichiometry    C20H18N2O2
 Framework group  C1[X(C20H18N2O2)]
 Deg. of freedom   120
 Full point group                 C1      NOp   1
 Largest Abelian subgroup         C1      NOp   1
 Largest concise Abelian subgroup C1      NOp   1
                         Standard orientation:                         
 ---------------------------------------------------------------------
 Center     Atomic      Atomic             Coordinates (Angstroms)
 Number     Number       Type             X           Y           Z
 ---------------------------------------------------------------------
      1          8           0       -4.571728    2.741774    0.349926
      2          6           0       -3.768183    1.796276    0.140359
      3          6           0       -4.258558    0.345400    0.201403
      4          6           0       -5.557171    0.053815    0.451867
      5          6           0       -6.011386   -1.417275    0.509513
      6          6           0       -5.110627   -2.412232    0.310653
      7          6           0       -3.635498   -2.069059    0.026851
      8          6           0       -3.245424   -0.772944   -0.024007
      9          6           0       -1.783159   -0.396118   -0.300743
     10          7           0       -0.905052   -1.337135   -0.418444
     11          6           0        0.515287   -0.994509   -0.440705
     12          6           0        1.454100   -1.965785   -0.336607
     13          6           0        2.944972   -1.587237   -0.271865
     14          6           0        3.313620   -0.284126   -0.319928
     15          7           0        4.734073    0.082302   -0.225348
     16          6           0        4.857839    1.406795    0.400191
     17          6           0        4.080549    2.725712    0.567161
     18          6           0        5.443652   -0.913307    0.590838
     19          6           0        6.771005   -1.693427    0.624720
     20          6           0        2.243677    0.812679   -0.477134
     21          6           0        0.934156    0.474308   -0.567963
     22          8           0       -0.047400    1.490055   -0.797659
     23          6           0       -1.380159    1.101537   -0.419461
     24          6           0       -2.287240    2.097441   -0.182444
     25          1           0       -6.264306    0.841316    0.609040
     26          1           0       -7.036137   -1.654043    0.706301
     27          1           0       -5.424352   -3.434414    0.350921
     28          1           0       -2.922359   -2.851299   -0.129459
     29          1           0        1.159680   -2.993605   -0.294141
     30          1           0        3.688725   -2.351735   -0.186573
     31          1           0        4.708017    1.676810   -0.624282
     32          1           0        4.267351    1.023854    1.206156
     33          1           0        4.351539    3.401167   -0.217201
     34          1           0        4.320205    3.163589    1.513591
     35          1           0        3.029839    2.528770    0.521106
     36          1           0        5.256379   -1.506145   -0.280008
     37          1           0        6.079558   -0.098006    0.866170
     38          1           0        6.619704   -2.672500    0.220463
     39          1           0        7.111778   -1.773778    1.635817
     40          1           0        7.503786   -1.176035    0.041421
     41          1           0        2.534567    1.841488   -0.519977
     42          1           0       -1.962807    3.116091   -0.227118
 ---------------------------------------------------------------------
 Rotational constants (GHZ):           0.5874009           0.1049636           0.0910672
 Leave Link  202 at Tue Feb 27 16:53:44 2024, MaxMem=  1342177280 cpu:               0.3 elap:               0.0
 (Enter /apps/x86-64/apps/gaussian_g16c01_avx2/g16/l301.exe)
 Standard basis: 6-311++G(d,p) (5D, 7F)
 Ernie: Thresh=  0.10000D-02 Tol=  0.10000D-05 Strict=F.
 There are   678 symmetry adapted cartesian basis functions of A   symmetry.
 There are   654 symmetry adapted basis functions of A   symmetry.
   654 basis functions,  1026 primitive gaussians,   678 cartesian basis functions
    84 alpha electrons       84 beta electrons
       nuclear repulsion energy      1859.0895618927 Hartrees.
 IExCor=  402 DFT=T Ex+Corr=B3LYP ExCW=0 ScaHFX=  0.200000
 ScaDFX=  0.800000  0.720000  1.000000  0.810000 ScalE2=  1.000000  1.000000
 IRadAn=      5 IRanWt=     -1 IRanGd=            0 ICorTp=0 IEmpDi=  4
 NAtoms=   42 NActive=   42 NUniq=   42 SFac= 1.00D+00 NAtFMM=   60 NAOKFM=F Big=F
 Integral buffers will be    131072 words long.
 Raffenetti 2 integral format.
 Two-electron integral symmetry is turned on.
 Force PCM accuracy= 1.00D-12.
 ------------------------------------------------------------------------------
 Polarizable Continuum Model (PCM)
 =================================
 Model                : PCM.
 Atomic radii         : SMD-Coulomb.
 Polarization charges : Total charges.
 Charge compensation  : None.
 Solution method      : On-the-fly selection.
 Cavity type          : VdW (van der Waals Surface) (Alpha=1.000).
 Cavity algorithm     : GePol (No added spheres)
                        Default sphere list used, NSphG=   42.
                        Lebedev-Laikov grids with approx.  5.0 points / Ang**2.
                        Smoothing algorithm: York/Karplus (Gamma=1.0000).
                        Polarization charges: spherical gaussians, with
                                              point-specific exponents (IZeta= 3).
                        Self-potential: point-specific (ISelfS= 7).
                        Self-field    : sphere-specific E.n sum rule (ISelfD= 2).
 1st derivatives      : Analytical E(r).r(x)/FMM algorithm (CHGder, D1EAlg=3).
                        Cavity 1st derivative terms included.
 Solvent              : Water, Eps=  78.355300 Eps(inf)=   1.777849
 ------------------------------------------------------------------------------
 GePol: Number of generator spheres                  =      42
 GePol: Total number of spheres                      =      42
 GePol: Number of exposed spheres                    =      42 (100.00%)
 GePol: Number of points                             =    3039
 GePol: Average weight of points                     =       0.11
 GePol: Minimum weight of points                     =   0.11D-11
 GePol: Maximum weight of points                     =    0.21991
 GePol: Number of points with low weight             =     161
 GePol: Fraction of low-weight points (<1% of avg)   =       5.30%
 GePol: Cavity surface area                          =    337.778 Ang**2
 GePol: Cavity volume                                =    325.776 Ang**3
 ------------------------------------------------------------------------------
 Atomic radii for non-electrostatic terms: SMD-CDS.
 ------------------------------------------------------------------------------
 PCM non-electrostatic energy =         0.0093988115 Hartrees.
 Nuclear repulsion after PCM non-electrostatic terms =     1859.0989607042 Hartrees.
 Leave Link  301 at Tue Feb 27 16:53:44 2024, MaxMem=  1342177280 cpu:               1.3 elap:               0.2
 (Enter /apps/x86-64/apps/gaussian_g16c01_avx2/g16/l302.exe)
 NPDir=0 NMtPBC=     1 NCelOv=     1 NCel=       1 NClECP=     1 NCelD=      1
         NCelK=      1 NCelE2=     1 NClLst=     1 CellRange=     0.0.
 One-electron integrals computed using PRISM.
 One-electron integral symmetry used in STVInt
 NBasis=   654 RedAO= T EigKep=  1.21D-06  NBF=   654
 NBsUse=   648 1.00D-06 EigRej=  7.81D-07 NBFU=   648
 Precomputing XC quadrature grid using
 IXCGrd= 4 IRadAn=           5 IRanWt=          -1 IRanGd=           0 AccXCQ= 1.00D-12.
 Generated NRdTot=       0 NPtTot=           0 NUsed=           0 NTot=          32
 NSgBfM=   664   664   664   664   664 MxSgAt=    42 MxSgA2=    42.
 Leave Link  302 at Tue Feb 27 16:53:45 2024, MaxMem=  1342177280 cpu:               5.5 elap:               0.6
 (Enter /apps/x86-64/apps/gaussian_g16c01_avx2/g16/l303.exe)
 DipDrv:  MaxL=1.
 Leave Link  303 at Tue Feb 27 16:53:45 2024, MaxMem=  1342177280 cpu:               0.7 elap:               0.1
 (Enter /apps/x86-64/apps/gaussian_g16c01_avx2/g16/l401.exe)
 ExpMin= 3.60D-02 ExpMax= 8.59D+03 ExpMxC= 1.30D+03 IAcc=3 IRadAn=         5 AccDes= 0.00D+00
 Harris functional with IExCor=  402 and IRadAn=       5 diagonalized for initial guess.
 HarFok:  IExCor=  402 AccDes= 0.00D+00 IRadAn=         5 IDoV= 1 UseB2=F ITyADJ=14
 ICtDFT=  3500011 ScaDFX=  1.000000  1.000000  1.000000  1.000000
 FoFCou: FMM=F IPFlag=           0 FMFlag=      100000 FMFlg1=           0
         NFxFlg=           0 DoJE=T BraDBF=F KetDBF=T FulRan=T
         wScrn=  0.000000 ICntrl=       500 IOpCl=  0 I1Cent=   200000004 NGrid=           0
         NMat0=    1 NMatS0=      1 NMatT0=    0 NMatD0=    1 NMtDS0=    0 NMtDT0=    0
 Petite list used in FoFCou.
 Harris En= -1032.55763492968    
 JPrj=0 DoOrth=F DoCkMO=F.
 Leave Link  401 at Tue Feb 27 16:53:47 2024, MaxMem=  1342177280 cpu:              23.9 elap:               2.4
 (Enter /apps/x86-64/apps/gaussian_g16c01_avx2/g16/l502.exe)
 Integral symmetry usage will be decided dynamically.
 Closed shell SCF:
 Using DIIS extrapolation, IDIIS=  1040.
 NGot=  1342177280 LenX=  1341243742 LenY=  1340783380
 Requested convergence on RMS density matrix=1.00D-08 within 128 cycles.
 Requested convergence on MAX density matrix=1.00D-06.
 Requested convergence on             energy=1.00D-06.
 No special actions if energy rises.
 Fock matrices will be formed incrementally for  20 cycles.

 Cycle   1  Pass 1  IDiag  1:
 FoFJK:  IHMeth= 1 ICntrl=       0 DoSepK=F KAlg= 0 I1Cent=           0 FoldK=F
 IRaf= 770000000 NMat=       1 IRICut=       1 DoRegI=T DoRafI=F ISym2E= 0 IDoP0=0 IntGTp=1.
 FoFCou: FMM=F IPFlag=           0 FMFlag=      100000 FMFlg1=           0
         NFxFlg=           0 DoJE=F BraDBF=F KetDBF=F FulRan=T
         wScrn=  0.000000 ICntrl=         0 IOpCl=  0 I1Cent=           0 NGrid=           0
         NMat0=    1 NMatS0=      1 NMatT0=    0 NMatD0=    1 NMtDS0=    0 NMtDT0=    0
 Symmetry not used in FoFCou.
 Inv3:  Mode=1 IEnd=    27706563.
 Iteration    1 A*A^-1 deviation from unit magnitude is 4.00D-15 for   1269.
 Iteration    1 A*A^-1 deviation from orthogonality  is 1.84D-15 for   3032   2423.
 Iteration    1 A^-1*A deviation from unit magnitude is 4.22D-15 for   1269.
 Iteration    1 A^-1*A deviation from orthogonality  is 2.81D-15 for   1359   1114.
 E= -1031.98911940956    
 DIIS: error= 2.05D-02 at cycle   1 NSaved=   1.
 NSaved= 1 IEnMin= 1 EnMin= -1031.98911940956     IErMin= 1 ErrMin= 2.05D-02
 ErrMax= 2.05D-02  0.00D+00 EMaxC= 1.00D-01 BMatC= 6.47D-01 BMatP= 6.47D-01
 IDIUse=3 WtCom= 7.95D-01 WtEn= 2.05D-01
 Coeff-Com:  0.100D+01
 Coeff-En:   0.100D+01
 Coeff:      0.100D+01
 Gap=     0.082 Goal=   None    Shift=    0.000
 GapD=    0.082 DampG=0.500 DampE=0.500 DampFc=0.2500 IDamp=-1.
 Damping current iteration by 2.50D-01
 RMSDP=3.43D-02 MaxDP=5.10D+00              OVMax= 8.86D-01

 Cycle   2  Pass 1  IDiag  1:
 RMSU=  8.34D-03    CP:  1.04D+00
 E= -1032.16926084067     Delta-E=       -0.180141431113 Rises=F Damp=T
 DIIS: error= 1.16D-02 at cycle   2 NSaved=   2.
 NSaved= 2 IEnMin= 2 EnMin= -1032.16926084067     IErMin= 2 ErrMin= 1.16D-02
 ErrMax= 1.16D-02  0.00D+00 EMaxC= 1.00D-01 BMatC= 1.59D-01 BMatP= 6.47D-01
 IDIUse=3 WtCom= 8.84D-01 WtEn= 1.16D-01
 Coeff-Com: -0.618D+00 0.162D+01
 Coeff-En:   0.000D+00 0.100D+01
 Coeff:     -0.546D+00 0.155D+01
 Gap=    -0.081 Goal=   None    Shift=    0.000
 RMSDP=1.04D-02 MaxDP=1.77D+00 DE=-1.80D-01 OVMax= 7.06D-01

 Cycle   3  Pass 1  IDiag  1:
 RMSU=  6.30D-03    CP:  8.84D-01  7.00D-01
 E= -1032.41792602307     Delta-E=       -0.248665182400 Rises=F Damp=F
 DIIS: error= 9.86D-03 at cycle   3 NSaved=   3.
 NSaved= 3 IEnMin= 3 EnMin= -1032.41792602307     IErMin= 3 ErrMin= 9.86D-03
 ErrMax= 9.86D-03  0.00D+00 EMaxC= 1.00D-01 BMatC= 1.21D-01 BMatP= 1.59D-01
 IDIUse=3 WtCom= 9.01D-01 WtEn= 9.86D-02
 Coeff-Com: -0.458D+00 0.101D+01 0.452D+00
 Coeff-En:   0.000D+00 0.000D+00 0.100D+01
 Coeff:     -0.413D+00 0.906D+00 0.506D+00
 Gap=     0.128 Goal=   None    Shift=    0.000
 RMSDP=8.35D-03 MaxDP=1.12D+00 DE=-2.49D-01 OVMax= 1.27D-01

 Cycle   4  Pass 1  IDiag  1:
 RMSU=  4.59D-03    CP:  9.29D-01  1.38D+00  4.66D-01
 E= -1032.55134611920     Delta-E=       -0.133420096123 Rises=F Damp=F
 DIIS: error= 3.29D-03 at cycle   4 NSaved=   4.
 NSaved= 4 IEnMin= 4 EnMin= -1032.55134611920     IErMin= 4 ErrMin= 3.29D-03
 ErrMax= 3.29D-03  0.00D+00 EMaxC= 1.00D-01 BMatC= 1.34D-02 BMatP= 1.21D-01
 IDIUse=3 WtCom= 9.67D-01 WtEn= 3.29D-02
 Coeff-Com: -0.241D+00 0.477D+00 0.253D+00 0.511D+00
 Coeff-En:   0.000D+00 0.000D+00 0.000D+00 0.100D+01
 Coeff:     -0.233D+00 0.461D+00 0.245D+00 0.527D+00
 Gap=     0.057 Goal=   None    Shift=    0.000
 RMSDP=1.50D-03 MaxDP=9.09D-02 DE=-1.33D-01 OVMax= 6.12D-02

 Cycle   5  Pass 1  IDiag  1:
 RMSU=  1.35D-03    CP:  9.19D-01  1.36D+00  5.18D-01  9.46D-01
 E= -1032.55817214889     Delta-E=       -0.006826029695 Rises=F Damp=F
 DIIS: error= 2.02D-03 at cycle   5 NSaved=   5.
 NSaved= 5 IEnMin= 5 EnMin= -1032.55817214889     IErMin= 5 ErrMin= 2.02D-03
 ErrMax= 2.02D-03  0.00D+00 EMaxC= 1.00D-01 BMatC= 5.67D-03 BMatP= 1.34D-02
 IDIUse=3 WtCom= 9.80D-01 WtEn= 2.02D-02
 Coeff-Com: -0.765D-01 0.120D+00 0.288D-01 0.379D+00 0.549D+00
 Coeff-En:   0.000D+00 0.000D+00 0.000D+00 0.334D+00 0.666D+00
 Coeff:     -0.749D-01 0.118D+00 0.282D-01 0.378D+00 0.551D+00
 Gap=     0.054 Goal=   None    Shift=    0.000
 RMSDP=1.74D-03 MaxDP=1.93D-01 DE=-6.83D-03 OVMax= 2.31D-02

 Cycle   6  Pass 1  IDiag  1:
 RMSU=  9.17D-04    CP:  9.07D-01  1.50D+00  4.78D-01  1.07D+00  1.29D+00
 E= -1032.56365626034     Delta-E=       -0.005484111445 Rises=F Damp=F
 DIIS: error= 2.79D-04 at cycle   6 NSaved=   6.
 NSaved= 6 IEnMin= 6 EnMin= -1032.56365626034     IErMin= 6 ErrMin= 2.79D-04
 ErrMax= 2.79D-04  0.00D+00 EMaxC= 1.00D-01 BMatC= 1.80D-04 BMatP= 5.67D-03
 IDIUse=3 WtCom= 9.97D-01 WtEn= 2.79D-03
 Coeff-Com: -0.150D-01 0.176D-01-0.150D-01 0.119D+00 0.238D+00 0.656D+00
 Coeff-En:   0.000D+00 0.000D+00 0.000D+00 0.000D+00 0.000D+00 0.100D+01
 Coeff:     -0.149D-01 0.176D-01-0.150D-01 0.119D+00 0.237D+00 0.657D+00
 Gap=     0.056 Goal=   None    Shift=    0.000
 RMSDP=4.97D-04 MaxDP=4.64D-02 DE=-5.48D-03 OVMax= 7.82D-03

 Cycle   7  Pass 1  IDiag  1:
 RMSU=  1.97D-04    CP:  9.06D-01  1.54D+00  4.75D-01  1.10D+00  1.48D+00
                    CP:  1.23D+00
 E= -1032.56381026618     Delta-E=       -0.000154005840 Rises=F Damp=F
 DIIS: error= 1.68D-04 at cycle   7 NSaved=   7.
 NSaved= 7 IEnMin= 7 EnMin= -1032.56381026618     IErMin= 7 ErrMin= 1.68D-04
 ErrMax= 1.68D-04  0.00D+00 EMaxC= 1.00D-01 BMatC= 4.94D-05 BMatP= 1.80D-04
 IDIUse=3 WtCom= 9.98D-01 WtEn= 1.68D-03
 Coeff-Com:  0.259D-02-0.571D-02-0.102D-01 0.651D-02 0.412D-01 0.384D+00
 Coeff-Com:  0.582D+00
 Coeff-En:   0.000D+00 0.000D+00 0.000D+00 0.000D+00 0.000D+00 0.147D+00
 Coeff-En:   0.853D+00
 Coeff:      0.259D-02-0.570D-02-0.102D-01 0.649D-02 0.411D-01 0.384D+00
 Coeff:      0.582D+00
 Gap=     0.056 Goal=   None    Shift=    0.000
 RMSDP=2.10D-04 MaxDP=1.56D-02 DE=-1.54D-04 OVMax= 3.37D-03

 Cycle   8  Pass 1  IDiag  1:
 RMSU=  1.08D-04    CP:  9.07D-01  1.54D+00  4.79D-01  1.10D+00  1.56D+00
                    CP:  1.35D+00  1.07D+00
 E= -1032.56385665379     Delta-E=       -0.000046387612 Rises=F Damp=F
 DIIS: error= 4.92D-05 at cycle   8 NSaved=   8.
 NSaved= 8 IEnMin= 8 EnMin= -1032.56385665379     IErMin= 8 ErrMin= 4.92D-05
 ErrMax= 4.92D-05  0.00D+00 EMaxC= 1.00D-01 BMatC= 4.62D-06 BMatP= 4.94D-05
 IDIUse=1 WtCom= 1.00D+00 WtEn= 0.00D+00
 Coeff-Com:  0.271D-02-0.420D-02-0.246D-02-0.485D-02 0.194D-02 0.152D+00
 Coeff-Com:  0.292D+00 0.563D+00
 Coeff:      0.271D-02-0.420D-02-0.246D-02-0.485D-02 0.194D-02 0.152D+00
 Coeff:      0.292D+00 0.563D+00
 Gap=     0.057 Goal=   None    Shift=    0.000
 RMSDP=6.24D-05 MaxDP=4.55D-03 DE=-4.64D-05 OVMax= 1.64D-03

 Cycle   9  Pass 1  IDiag  1:
 RMSU=  2.30D-05    CP:  9.06D-01  1.54D+00  4.80D-01  1.10D+00  1.59D+00
                    CP:  1.38D+00  1.16D+00  1.01D+00
 E= -1032.56386088966     Delta-E=       -0.000004235869 Rises=F Damp=F
 DIIS: error= 2.70D-05 at cycle   9 NSaved=   9.
 NSaved= 9 IEnMin= 9 EnMin= -1032.56386088966     IErMin= 9 ErrMin= 2.70D-05
 ErrMax= 2.70D-05  0.00D+00 EMaxC= 1.00D-01 BMatC= 8.00D-07 BMatP= 4.62D-06
 IDIUse=1 WtCom= 1.00D+00 WtEn= 0.00D+00
 Coeff-Com:  0.132D-02-0.171D-02 0.987D-03-0.255D-02-0.537D-02 0.222D-01
 Coeff-Com:  0.466D-01 0.280D+00 0.659D+00
 Coeff:      0.132D-02-0.171D-02 0.987D-03-0.255D-02-0.537D-02 0.222D-01
 Coeff:      0.466D-01 0.280D+00 0.659D+00
 Gap=     0.057 Goal=   None    Shift=    0.000
 RMSDP=3.80D-05 MaxDP=4.82D-03 DE=-4.24D-06 OVMax= 9.13D-04

 Cycle  10  Pass 1  IDiag  1:
 RMSU=  1.22D-05    CP:  9.06D-01  1.54D+00  4.81D-01  1.10D+00  1.60D+00
                    CP:  1.40D+00  1.17D+00  1.06D+00  1.11D+00
 E= -1032.56386183964     Delta-E=       -0.000000949978 Rises=F Damp=F
 DIIS: error= 6.61D-06 at cycle  10 NSaved=  10.
 NSaved=10 IEnMin=10 EnMin= -1032.56386183964     IErMin=10 ErrMin= 6.61D-06
 ErrMax= 6.61D-06  0.00D+00 EMaxC= 1.00D-01 BMatC= 1.11D-07 BMatP= 8.00D-07
 IDIUse=1 WtCom= 1.00D+00 WtEn= 0.00D+00
 Coeff-Com:  0.494D-03-0.611D-03 0.802D-03-0.530D-03-0.283D-02-0.260D-02
 Coeff-Com: -0.125D-01 0.510D-01 0.321D+00 0.646D+00
 Coeff:      0.494D-03-0.611D-03 0.802D-03-0.530D-03-0.283D-02-0.260D-02
 Coeff:     -0.125D-01 0.510D-01 0.321D+00 0.646D+00
 Gap=     0.057 Goal=   None    Shift=    0.000
 RMSDP=9.96D-06 MaxDP=8.40D-04 DE=-9.50D-07 OVMax= 4.25D-04

 Cycle  11  Pass 1  IDiag  1:
 RMSU=  4.66D-06    CP:  9.06D-01  1.54D+00  4.81D-01  1.10D+00  1.60D+00
                    CP:  1.40D+00  1.17D+00  1.08D+00  1.20D+00  9.16D-01
 E= -1032.56386197247     Delta-E=       -0.000000132832 Rises=F Damp=F
 DIIS: error= 3.72D-06 at cycle  11 NSaved=  11.
 NSaved=11 IEnMin=11 EnMin= -1032.56386197247     IErMin=11 ErrMin= 3.72D-06
 ErrMax= 3.72D-06  0.00D+00 EMaxC= 1.00D-01 BMatC= 2.98D-08 BMatP= 1.11D-07
 IDIUse=1 WtCom= 1.00D+00 WtEn= 0.00D+00
 Coeff-Com:  0.972D-04-0.114D-03 0.336D-03 0.183D-03-0.842D-03-0.515D-02
 Coeff-Com: -0.188D-01-0.306D-01 0.754D-01 0.427D+00 0.552D+00
 Coeff:      0.972D-04-0.114D-03 0.336D-03 0.183D-03-0.842D-03-0.515D-02
 Coeff:     -0.188D-01-0.306D-01 0.754D-01 0.427D+00 0.552D+00
 Gap=     0.057 Goal=   None    Shift=    0.000
 RMSDP=4.68D-06 MaxDP=3.25D-04 DE=-1.33D-07 OVMax= 1.72D-04

 Cycle  12  Pass 1  IDiag  1:
 RMSU=  2.08D-06    CP:  9.06D-01  1.54D+00  4.81D-01  1.10D+00  1.60D+00
                    CP:  1.40D+00  1.18D+00  1.09D+00  1.25D+00  1.03D+00
                    CP:  1.08D+00
 E= -1032.56386200700     Delta-E=       -0.000000034529 Rises=F Damp=F
 DIIS: error= 1.05D-06 at cycle  12 NSaved=  12.
 NSaved=12 IEnMin=12 EnMin= -1032.56386200700     IErMin=12 ErrMin= 1.05D-06
 ErrMax= 1.05D-06  0.00D+00 EMaxC= 1.00D-01 BMatC= 1.56D-09 BMatP= 2.98D-08
 IDIUse=1 WtCom= 1.00D+00 WtEn= 0.00D+00
 Coeff-Com:  0.185D-04-0.272D-04 0.605D-04 0.130D-03-0.134D-03-0.161D-02
 Coeff-Com: -0.756D-02-0.204D-01 0.479D-02 0.141D+00 0.237D+00 0.647D+00
 Coeff:      0.185D-04-0.272D-04 0.605D-04 0.130D-03-0.134D-03-0.161D-02
 Coeff:     -0.756D-02-0.204D-01 0.479D-02 0.141D+00 0.237D+00 0.647D+00
 Gap=     0.057 Goal=   None    Shift=    0.000
 RMSDP=1.29D-06 MaxDP=1.49D-04 DE=-3.45D-08 OVMax= 6.36D-05

 Cycle  13  Pass 1  IDiag  1:
 RMSU=  6.24D-07    CP:  9.06D-01  1.54D+00  4.81D-01  1.10D+00  1.60D+00
                    CP:  1.40D+00  1.18D+00  1.09D+00  1.26D+00  1.08D+00
                    CP:  1.14D+00  1.14D+00
 E= -1032.56386200923     Delta-E=       -0.000000002232 Rises=F Damp=F
 DIIS: error= 7.29D-07 at cycle  13 NSaved=  13.
 NSaved=13 IEnMin=13 EnMin= -1032.56386200923     IErMin=13 ErrMin= 7.29D-07
 ErrMax= 7.29D-07  0.00D+00 EMaxC= 1.00D-01 BMatC= 7.04D-10 BMatP= 1.56D-09
 IDIUse=1 WtCom= 1.00D+00 WtEn= 0.00D+00
 Coeff-Com: -0.805D-05 0.594D-05-0.358D-04 0.406D-04 0.709D-04 0.162D-03
 Coeff-Com: -0.906D-03-0.685D-02-0.132D-01-0.159D-02 0.189D-01 0.429D+00
 Coeff-Com:  0.574D+00
 Coeff:     -0.805D-05 0.594D-05-0.358D-04 0.406D-04 0.709D-04 0.162D-03
 Coeff:     -0.906D-03-0.685D-02-0.132D-01-0.159D-02 0.189D-01 0.429D+00
 Coeff:      0.574D+00
 Gap=     0.057 Goal=   None    Shift=    0.000
 RMSDP=6.36D-07 MaxDP=4.56D-05 DE=-2.23D-09 OVMax= 2.77D-05

 Cycle  14  Pass 1  IDiag  1:
 RMSU=  2.60D-07    CP:  9.06D-01  1.54D+00  4.81D-01  1.10D+00  1.60D+00
                    CP:  1.40D+00  1.18D+00  1.09D+00  1.26D+00  1.08D+00
                    CP:  1.21D+00  1.29D+00  1.04D+00
 E= -1032.56386201002     Delta-E=       -0.000000000790 Rises=F Damp=F
 DIIS: error= 1.62D-07 at cycle  14 NSaved=  14.
 NSaved=14 IEnMin=14 EnMin= -1032.56386201002     IErMin=14 ErrMin= 1.62D-07
 ErrMax= 1.62D-07  0.00D+00 EMaxC= 1.00D-01 BMatC= 4.51D-11 BMatP= 7.04D-10
 IDIUse=1 WtCom= 1.00D+00 WtEn= 0.00D+00
 Coeff-Com: -0.828D-05 0.123D-04-0.209D-04 0.194D-05 0.269D-04 0.259D-03
 Coeff-Com:  0.459D-03-0.460D-03-0.611D-02-0.174D-01-0.257D-01 0.128D+00
 Coeff-Com:  0.254D+00 0.668D+00
 Coeff:     -0.828D-05 0.123D-04-0.209D-04 0.194D-05 0.269D-04 0.259D-03
 Coeff:      0.459D-03-0.460D-03-0.611D-02-0.174D-01-0.257D-01 0.128D+00
 Coeff:      0.254D+00 0.668D+00
 Gap=     0.057 Goal=   None    Shift=    0.000
 RMSDP=2.24D-07 MaxDP=1.59D-05 DE=-7.90D-10 OVMax= 9.00D-06

 Cycle  15  Pass 1  IDiag  1:
 RMSU=  8.59D-08    CP:  9.06D-01  1.54D+00  4.81D-01  1.10D+00  1.60D+00
                    CP:  1.40D+00  1.18D+00  1.09D+00  1.26D+00  1.08D+00
                    CP:  1.23D+00  1.33D+00  1.13D+00  1.13D+00
 E= -1032.56386201004     Delta-E=       -0.000000000018 Rises=F Damp=F
 DIIS: error= 8.42D-08 at cycle  15 NSaved=  15.
 NSaved=15 IEnMin=15 EnMin= -1032.56386201004     IErMin=15 ErrMin= 8.42D-08
 ErrMax= 8.42D-08  0.00D+00 EMaxC= 1.00D-01 BMatC= 1.57D-11 BMatP= 4.51D-11
 IDIUse=1 WtCom= 1.00D+00 WtEn= 0.00D+00
 Coeff-Com: -0.148D-05 0.226D-05-0.836D-05-0.816D-05-0.369D-05 0.129D-03
 Coeff-Com:  0.429D-03 0.983D-03-0.111D-02-0.917D-02-0.190D-01-0.218D-02
 Coeff-Com:  0.320D-01 0.411D+00 0.586D+00
 Coeff:     -0.148D-05 0.226D-05-0.836D-05-0.816D-05-0.369D-05 0.129D-03
 Coeff:      0.429D-03 0.983D-03-0.111D-02-0.917D-02-0.190D-01-0.218D-02
 Coeff:      0.320D-01 0.411D+00 0.586D+00
 Gap=     0.057 Goal=   None    Shift=    0.000
 RMSDP=1.45D-07 MaxDP=1.38D-05 DE=-1.82D-11 OVMax= 2.51D-06

 Cycle  16  Pass 1  IDiag  1:
 RMSU=  3.64D-08    CP:  9.06D-01  1.54D+00  4.81D-01  1.10D+00  1.60D+00
                    CP:  1.40D+00  1.18D+00  1.09D+00  1.26D+00  1.08D+00
                    CP:  1.24D+00  1.36D+00  1.16D+00  1.25D+00  9.51D-01
 E= -1032.56386201007     Delta-E=       -0.000000000036 Rises=F Damp=F
 DIIS: error= 2.36D-08 at cycle  16 NSaved=  16.
 NSaved=16 IEnMin=16 EnMin= -1032.56386201007     IErMin=16 ErrMin= 2.36D-08
 ErrMax= 2.36D-08  0.00D+00 EMaxC= 1.00D-01 BMatC= 8.24D-13 BMatP= 1.57D-11
 IDIUse=1 WtCom= 1.00D+00 WtEn= 0.00D+00
 Coeff-Com: -0.229D-06 0.406D-06-0.233D-05-0.387D-05-0.449D-05 0.405D-04
 Coeff-Com:  0.175D-03 0.525D-03-0.511D-05-0.291D-02-0.714D-02-0.138D-01
 Coeff-Com: -0.103D-01 0.142D+00 0.269D+00 0.623D+00
 Coeff:     -0.229D-06 0.406D-06-0.233D-05-0.387D-05-0.449D-05 0.405D-04
 Coeff:      0.175D-03 0.525D-03-0.511D-05-0.291D-02-0.714D-02-0.138D-01
 Coeff:     -0.103D-01 0.142D+00 0.269D+00 0.623D+00
 Gap=     0.057 Goal=   None    Shift=    0.000
 RMSDP=3.89D-08 MaxDP=4.33D-06 DE=-3.64D-11 OVMax= 7.45D-07

 Cycle  17  Pass 1  IDiag  1:
 RMSU=  1.04D-08    CP:  9.06D-01  1.54D+00  4.81D-01  1.10D+00  1.60D+00
                    CP:  1.40D+00  1.18D+00  1.09D+00  1.26D+00  1.08D+00
                    CP:  1.24D+00  1.37D+00  1.17D+00  1.28D+00  9.61D-01
                    CP:  1.07D+00
 E= -1032.56386201010     Delta-E=       -0.000000000028 Rises=F Damp=F
 DIIS: error= 9.97D-09 at cycle  17 NSaved=  17.
 NSaved=17 IEnMin=17 EnMin= -1032.56386201010     IErMin=17 ErrMin= 9.97D-09
 ErrMax= 9.97D-09  0.00D+00 EMaxC= 1.00D-01 BMatC= 1.68D-13 BMatP= 8.24D-13
 IDIUse=1 WtCom= 1.00D+00 WtEn= 0.00D+00
 Coeff-Com: -0.881D-07 0.210D-06 0.300D-06-0.522D-06-0.210D-05-0.137D-05
 Coeff-Com:  0.203D-04 0.106D-03 0.175D-03-0.257D-04-0.649D-03-0.677D-02
 Coeff-Com: -0.987D-02 0.116D-01 0.454D-01 0.341D+00 0.619D+00
 Coeff:     -0.881D-07 0.210D-06 0.300D-06-0.522D-06-0.210D-05-0.137D-05
 Coeff:      0.203D-04 0.106D-03 0.175D-03-0.257D-04-0.649D-03-0.677D-02
 Coeff:     -0.987D-02 0.116D-01 0.454D-01 0.341D+00 0.619D+00
 Gap=     0.057 Goal=   None    Shift=    0.000
 RMSDP=1.20D-08 MaxDP=8.62D-07 DE=-2.84D-11 OVMax= 3.40D-07

 Cycle  18  Pass 1  IDiag  1:
 RMSU=  3.53D-09    CP:  9.06D-01  1.54D+00  4.81D-01  1.10D+00  1.60D+00
                    CP:  1.40D+00  1.18D+00  1.09D+00  1.26D+00  1.08D+00
                    CP:  1.24D+00  1.37D+00  1.18D+00  1.29D+00  9.87D-01
                    CP:  1.14D+00  1.01D+00
 E= -1032.56386201010     Delta-E=        0.000000000003 Rises=F Damp=F
 DIIS: error= 3.85D-09 at cycle  18 NSaved=  18.
 NSaved=18 IEnMin=17 EnMin= -1032.56386201010     IErMin=18 ErrMin= 3.85D-09
 ErrMax= 3.85D-09  0.00D+00 EMaxC= 1.00D-01 BMatC= 2.17D-14 BMatP= 1.68D-13
 IDIUse=1 WtCom= 1.00D+00 WtEn= 0.00D+00
 Coeff-Com:  0.771D-07-0.117D-06 0.337D-06 0.949D-07-0.476D-06-0.354D-05
 Coeff-Com: -0.485D-05 0.444D-05 0.104D-03 0.308D-03 0.408D-03-0.249D-02
 Coeff-Com: -0.429D-02-0.921D-02-0.347D-02 0.120D+00 0.333D+00 0.565D+00
 Coeff:      0.771D-07-0.117D-06 0.337D-06 0.949D-07-0.476D-06-0.354D-05
 Coeff:     -0.485D-05 0.444D-05 0.104D-03 0.308D-03 0.408D-03-0.249D-02
 Coeff:     -0.429D-02-0.921D-02-0.347D-02 0.120D+00 0.333D+00 0.565D+00
 Gap=     0.057 Goal=   None    Shift=    0.000
 RMSDP=4.19D-09 MaxDP=3.11D-07 DE= 2.73D-12 OVMax= 1.50D-07

 Error on total polarization charges =  0.08525
 SCF Done:  E(RB3LYP) =  -1032.56386201     A.U. after   18 cycles
            NFock= 18  Conv=0.42D-08     -V/T= 2.0048
 KE= 1.027646864369D+03 PE=-6.119218588152D+03 EE= 2.199908901068D+03
 SMD-CDS (non-electrostatic) energy       (kcal/mol) =       5.90
 (included in total energy above)
 Leave Link  502 at Tue Feb 27 16:58:33 2024, MaxMem=  1342177280 cpu:            2840.6 elap:             285.3
 (Enter /apps/x86-64/apps/gaussian_g16c01_avx2/g16/l601.exe)
 Copying SCF densities to generalized density rwf, IOpCl= 0 IROHF=0.

 **********************************************************************

            Population analysis using the SCF Density.

 **********************************************************************

 Orbital symmetries:
       Occupied  (A) (A) (A) (A) (A) (A) (A) (A) (A) (A) (A) (A)
                 (A) (A) (A) (A) (A) (A) (A) (A) (A) (A) (A) (A)
                 (A) (A) (A) (A) (A) (A) (A) (A) (A) (A) (A) (A)
                 (A) (A) (A) (A) (A) (A) (A) (A) (A) (A) (A) (A)
                 (A) (A) (A) (A) (A) (A) (A) (A) (A) (A) (A) (A)
                 (A) (A) (A) (A) (A) (A) (A) (A) (A) (A) (A) (A)
                 (A) (A) (A) (A) (A) (A) (A) (A) (A) (A) (A) (A)
       Virtual   (A) (A) (A) (A) (A) (A) (A) (A) (A) (A) (A) (A)
                 (A) (A) (A) (A) (A) (A) (A) (A) (A) (A) (A) (A)
                 (A) (A) (A) (A) (A) (A) (A) (A) (A) (A) (A) (A)
                 (A) (A) (A) (A) (A) (A) (A) (A) (A) (A) (A) (A)
                 (A) (A) (A) (A) (A) (A) (A) (A) (A) (A) (A) (A)
                 (A) (A) (A) (A) (A) (A) (A) (A) (A) (A) (A) (A)
                 (A) (A) (A) (A) (A) (A) (A) (A) (A) (A) (A) (A)
                 (A) (A) (A) (A) (A) (A) (A) (A) (A) (A) (A) (A)
                 (A) (A) (A) (A) (A) (A) (A) (A) (A) (A) (A) (A)
                 (A) (A) (A) (A) (A) (A) (A) (A) (A) (A) (A) (A)
                 (A) (A) (A) (A) (A) (A) (A) (A) (A) (A) (A) (A)
                 (A) (A) (A) (A) (A) (A) (A) (A) (A) (A) (A) (A)
                 (A) (A) (A) (A) (A) (A) (A) (A) (A) (A) (A) (A)
                 (A) (A) (A) (A) (A) (A) (A) (A) (A) (A) (A) (A)
                 (A) (A) (A) (A) (A) (A) (A) (A) (A) (A) (A) (A)
                 (A) (A) (A) (A) (A) (A) (A) (A) (A) (A) (A) (A)
                 (A) (A) (A) (A) (A) (A) (A) (A) (A) (A) (A) (A)
                 (A) (A) (A) (A) (A) (A) (A) (A) (A) (A) (A) (A)
                 (A) (A) (A) (A) (A) (A) (A) (A) (A) (A) (A) (A)
                 (A) (A) (A) (A) (A) (A) (A) (A) (A) (A) (A) (A)
                 (A) (A) (A) (A) (A) (A) (A) (A) (A) (A) (A) (A)
                 (A) (A) (A) (A) (A) (A) (A) (A) (A) (A) (A) (A)
                 (A) (A) (A) (A) (A) (A) (A) (A) (A) (A) (A) (A)
                 (A) (A) (A) (A) (A) (A) (A) (A) (A) (A) (A) (A)
                 (A) (A) (A) (A) (A) (A) (A) (A) (A) (A) (A) (A)
                 (A) (A) (A) (A) (A) (A) (A) (A) (A) (A) (A) (A)
                 (A) (A) (A) (A) (A) (A) (A) (A) (A) (A) (A) (A)
                 (A) (A) (A) (A) (A) (A) (A) (A) (A) (A) (A) (A)
                 (A) (A) (A) (A) (A) (A) (A) (A) (A) (A) (A) (A)
                 (A) (A) (A) (A) (A) (A) (A) (A) (A) (A) (A) (A)
                 (A) (A) (A) (A) (A) (A) (A) (A) (A) (A) (A) (A)
                 (A) (A) (A) (A) (A) (A) (A) (A) (A) (A) (A) (A)
                 (A) (A) (A) (A) (A) (A) (A) (A) (A) (A) (A) (A)
                 (A) (A) (A) (A) (A) (A) (A) (A) (A) (A) (A) (A)
                 (A) (A) (A) (A) (A) (A) (A) (A) (A) (A) (A) (A)
                 (A) (A) (A) (A) (A) (A) (A) (A) (A) (A) (A) (A)
                 (A) (A) (A) (A) (A) (A) (A) (A) (A) (A) (A) (A)
                 (A) (A) (A) (A) (A) (A) (A) (A) (A) (A) (A) (A)
                 (A) (A) (A) (A) (A) (A) (A) (A) (A) (A) (A) (A)
                 (A) (A) (A) (A) (A) (A) (A) (A) (A) (A) (A) (A)
                 (A) (A) (A) (A) (A) (A) (A) (A) (A) (A) (A) (A)
                 (A) (A) (A) (A) (A) (A) (A) (A) (A) (A) (A) (A)
                 (A) (A) (A) (A) (A) (A) (A) (A) (A) (A) (A) (A)
                 (A) (A) (A) (A) (A) (A) (A) (A) (A) (A) (A) (A)
                 (A) (A) (A) (A) (A) (A) (A) (A) (A) (A) (A) (A)
                 (A) (A) (A) (A) (A) (A) (A) (A) (A) (A) (A) (A)
                 (A) (A) (A) (A) (A) (A) (A) (A) (A) (A) (A) (A)
 The electronic state is 1-A.
 Alpha  occ. eigenvalues --  -19.20935 -19.12961 -14.37933 -14.34531 -10.29591
 Alpha  occ. eigenvalues --  -10.28891 -10.26935 -10.26588 -10.23793 -10.23430
 Alpha  occ. eigenvalues --  -10.22048 -10.21398 -10.20471 -10.20430 -10.20250
 Alpha  occ. eigenvalues --  -10.20088 -10.19978 -10.19807 -10.19743 -10.19529
 Alpha  occ. eigenvalues --  -10.19509 -10.18762 -10.16480 -10.14847  -1.09292
 Alpha  occ. eigenvalues --   -1.04371  -0.98472  -0.95212  -0.86726  -0.85048
 Alpha  occ. eigenvalues --   -0.82591  -0.81336  -0.78309  -0.77699  -0.76725
 Alpha  occ. eigenvalues --   -0.75290  -0.74003  -0.67282  -0.66661  -0.65593
 Alpha  occ. eigenvalues --   -0.63443  -0.62280  -0.61468  -0.58812  -0.56888
 Alpha  occ. eigenvalues --   -0.55288  -0.54917  -0.53308  -0.52897  -0.52500
 Alpha  occ. eigenvalues --   -0.50276  -0.48791  -0.47944  -0.47199  -0.46484
 Alpha  occ. eigenvalues --   -0.45961  -0.45871  -0.44612  -0.43931  -0.43693
 Alpha  occ. eigenvalues --   -0.43476  -0.42954  -0.42238  -0.41666  -0.41251
 Alpha  occ. eigenvalues --   -0.40752  -0.39615  -0.38851  -0.37655  -0.37041
[...]
    14  C   -0.022389  -5.956094  -2.087407   0.084489  -0.410404   0.133438
    15  N    0.188688   0.048256   0.686257  -0.060955   0.006105  -0.001148
    16  C   -0.033620   0.059155   0.137375  -0.001289  -0.087759   0.002874
    17  C    0.003771  -0.011731  -0.095250  -0.002878  -0.014599   0.000334
    18  C    0.025351  -0.632218   0.443396  -0.030166  -0.035687  -0.000652
    19  C    4.354940   0.011599  -0.033347   0.000285   0.002425   0.000414
    20  C    0.011599  29.083618  -8.150830   0.464264   1.743457  -1.139559
    21  C   -0.033347  -8.150830  36.287662  -2.184503  -3.798782   3.625365
    22  O    0.000285   0.464264  -2.184503  10.641955  -2.003586  -0.557723
    23  C    0.002425   1.743457  -3.798782  -2.003586  33.153415  -5.864359
    24  C    0.000414  -1.139559   3.625365  -0.557723  -5.864359  27.503944
    25  H    0.000000  -0.001935   0.005420   0.003127   0.057334  -0.135104
    26  H   -0.000000   0.000874  -0.003075  -0.001157   0.020091  -0.037107
    27  H    0.000003  -0.001527   0.006108   0.001106  -0.008076   0.018316
    28  H   -0.000202   0.012012  -0.077765   0.007985  -0.107785   0.070821
    29  H    0.006856  -0.294173   0.728395  -0.039516  -0.110041  -0.027451
    30  H    0.017706   0.740648  -1.107445   0.021148   0.009622  -0.004421
    31  H    0.048436   0.349830  -0.188988   0.008390   0.044890  -0.000755
    32  H   -0.035902  -0.003840   0.042996   0.000344  -0.008313  -0.000015
    33  H    0.002734  -0.048134  -0.034282   0.006911  -0.003746  -0.002306
    34  H   -0.015963   0.022359  -0.012011  -0.000663  -0.002540   0.000080
    35  H    0.027623   0.180912  -0.006347  -0.000118   0.002479   0.000433
    36  H    0.023482  -0.203106  -0.016288  -0.000555  -0.000502   0.000311
    37  H   -0.334820  -0.024170   0.068316  -0.001171  -0.001685  -0.000445
    38  H    0.118494  -0.135016   0.062651  -0.000368  -0.002012   0.000087
    39  H    0.264932   0.018597  -0.001870  -0.000178   0.000167   0.000046
    40  H    0.141567   0.017737  -0.017761   0.000349   0.000360   0.000043
    41  H    0.020141  -5.483492   2.392426  -0.615322  -0.754034   0.122876
    42  H    0.000044   0.171118  -0.763602  -0.372960   2.004519  -3.125554
              25         26         27         28         29         30
     1  O   -0.174335   0.001388   0.001439  -0.000886  -0.000164   0.000023
     2  C    0.673151  -0.060113   0.030845  -0.073067   0.009719  -0.002708
     3  C    1.080886   0.033348   0.126100  -1.118952   0.035702   0.003038
     4  C   -2.919540   1.033888  -0.432823   0.160462   0.009821  -0.001265
     5  C    0.823716  -1.918295   0.420184  -0.091954  -0.004814   0.000555
     6  C   -0.264258   0.581739  -2.189249   1.567744  -0.011085  -0.002055
     7  C    0.170557  -0.332277   1.502283  -3.366813  -0.108383   0.016209
     8  C   -0.419209  -0.006092  -0.060123   1.124243   0.259286  -0.028598
     9  C   -0.091660   0.012339  -0.108053   0.854247  -0.316581   0.117826
    10  N    0.000907   0.002446   0.031018  -0.460691   0.001908  -0.134279
    11  C    0.010756   0.002485   0.006613  -0.087016   0.928934   0.748011
    12  C   -0.001957  -0.000018  -0.000457   0.010724  -2.662580   1.595105
    13  C   -0.000890   0.000004  -0.000071   0.026145   0.696010  -5.514116
    14  C    0.001082  -0.000166   0.000973  -0.016962  -0.008028   0.661372
    15  N    0.000008   0.000001  -0.000020   0.001814  -0.022876   0.386892
    16  C    0.000009  -0.000001   0.000002   0.000113   0.000077   0.151509
    17  C    0.000002  -0.000000   0.000001  -0.000041  -0.000260   0.041886
    18  C    0.000005  -0.000001  -0.000003   0.000471   0.021744  -0.306387
    19  C    0.000000  -0.000000   0.000003  -0.000202   0.006856   0.017706
    20  C   -0.001935   0.000874  -0.001527   0.012012  -0.294173   0.740648
    21  C    0.005420  -0.003075   0.006108  -0.077765   0.728395  -1.107445
    22  O    0.003127  -0.001157   0.001106   0.007985  -0.039516   0.021148
    23  C    0.057334   0.020091  -0.008076  -0.107785  -0.110041   0.009622
    24  C   -0.135104  -0.037107   0.018316   0.070821  -0.027451  -0.004421
    25  H    3.469452  -0.222850  -0.029554   0.008787   0.000172  -0.000044
    26  H   -0.222850   2.868975  -0.184620  -0.024440   0.000130   0.000006
    27  H   -0.029554  -0.184620   2.923926  -0.248896   0.001227  -0.000135
    28  H    0.008787  -0.024440  -0.248896   3.954467  -0.019415   0.004405
    29  H    0.000172   0.000130   0.001227  -0.019415   3.329181  -0.495041
    30  H   -0.000044   0.000006  -0.000135   0.004405  -0.495041   6.067028
    31  H    0.000004   0.000001  -0.000007   0.000121  -0.002494   0.024215
    32  H    0.000001  -0.000000   0.000001  -0.000033   0.002956  -0.023079
    33  H   -0.000000   0.000001  -0.000001  -0.000053   0.001341   0.001720
    34  H    0.000000  -0.000000  -0.000000   0.000007  -0.000181   0.003722
    35  H    0.000000  -0.000000   0.000001  -0.000015  -0.000103  -0.000181
    36  H    0.000001  -0.000000   0.000007  -0.000323   0.013292  -0.323304
    37  H   -0.000000   0.000000  -0.000001   0.000085  -0.001773   0.046403
    38  H    0.000000   0.000000  -0.000003   0.000037  -0.003232  -0.111390
    39  H    0.000000  -0.000000   0.000000  -0.000023   0.002034  -0.004533
    40  H   -0.000000  -0.000000   0.000000  -0.000028   0.001566  -0.020468
    41  H   -0.000069  -0.000039   0.000123   0.000460  -0.005088  -0.060721
    42  H   -0.004582   0.001934  -0.001421   0.006864   0.002459  -0.000553
              31         32         33         34         35         36
     1  O   -0.000027   0.000000  -0.000013  -0.000002   0.000000   0.000001
     2  C    0.004191  -0.000037   0.001788  -0.000022  -0.000104  -0.000021
     3  C   -0.000794  -0.000035  -0.000294  -0.000034   0.000018  -0.000383
     4  C    0.000065   0.000015   0.000015  -0.000003   0.000000   0.000003
     5  C   -0.000011  -0.000003   0.000012  -0.000001  -0.000002  -0.000007
     6  C    0.000055   0.000002  -0.000004   0.000002   0.000008   0.000166
     7  C    0.000827  -0.000158   0.000142   0.000009  -0.000013  -0.000045
     8  C   -0.001601   0.000354  -0.001183   0.000119  -0.000011   0.000952
     9  C   -0.002883   0.000940   0.004701   0.000413  -0.000644  -0.010832
    10  N    0.002896  -0.001453   0.000433  -0.000450   0.000066   0.003797
    11  C   -0.061583   0.014666  -0.030855   0.001631   0.004475  -0.020699
    12  C   -0.002932   0.001189   0.029388   0.004084  -0.009380  -0.082292
    13  C   -0.051991   0.030242  -0.079043  -0.001712   0.011422   0.170266
    14  C    0.492491  -0.216959   0.082449  -0.042830  -0.044523   0.799167
    15  N   -0.282340  -0.334420  -0.234589   0.236012  -0.108176  -0.499176
    16  C   -0.503941   0.019826   0.311274  -0.010963  -0.112614  -0.289951
    17  C    0.051368  -0.310501   0.200292   0.229383   0.127812   0.041754
    18  C   -0.305233   0.317758  -0.001277   0.014446  -0.096605  -0.443023
    19  C    0.048436  -0.035902   0.002734  -0.015963   0.027623   0.023482
    20  C    0.349830  -0.003840  -0.048134   0.022359   0.180912  -0.203106
    21  C   -0.188988   0.042996  -0.034282  -0.012011  -0.006347  -0.016288
    22  O    0.008390   0.000344   0.006911  -0.000663  -0.000118  -0.000555
    23  C    0.044890  -0.008313  -0.003746  -0.002540   0.002479  -0.000502
    24  C   -0.000755  -0.000015  -0.002306   0.000080   0.000433   0.000311
    25  H    0.000004   0.000001  -0.000000   0.000000   0.000000   0.000001
    26  H    0.000001  -0.000000   0.000001  -0.000000  -0.000000  -0.000000
    27  H   -0.000007   0.000001  -0.000001  -0.000000   0.000001   0.000007
    28  H    0.000121  -0.000033  -0.000053   0.000007  -0.000015  -0.000323
    29  H   -0.002494   0.002956   0.001341  -0.000181  -0.000103   0.013292
    30  H    0.024215  -0.023079   0.001720   0.003722  -0.000181  -0.323304
    31  H    3.071526  -0.933405  -0.117797  -0.162288   0.235951  -0.028033
    32  H   -0.933405   3.055624   0.163650  -0.151056  -0.189828   0.036793
    33  H   -0.117797   0.163650   2.014534  -0.389642  -0.363382  -0.002698
    34  H   -0.162288  -0.151056  -0.389642   2.058979  -0.454116   0.001881
    35  H    0.235951  -0.189828  -0.363382  -0.454116   2.162256  -0.008971
    36  H   -0.028033   0.036793  -0.002698   0.001881  -0.008971   3.188654
    37  H    0.034630   0.037271  -0.002603   0.010336  -0.013843  -0.909265
    38  H    0.000729  -0.003669   0.002458  -0.000678  -0.000475  -0.109923
    39  H    0.002059   0.007983  -0.000425  -0.001599   0.001304  -0.175709
    40  H   -0.006759   0.001462  -0.000869   0.000281   0.003696   0.235938
    41  H   -0.309576   0.064325  -0.177362  -0.016478  -0.005526   0.026924
    42  H    0.002490  -0.000038   0.000885  -0.000011   0.000104  -0.000044
              37         38         39         40         41         42
     1  O   -0.000001  -0.000000  -0.000000   0.000000   0.001417  -0.140291
     2  C    0.000118   0.000202   0.000011  -0.000076  -0.054716   0.727371
     3  C   -0.000046  -0.000033   0.000011  -0.000024   0.009419  -0.059977
     4  C    0.000003   0.000022   0.000003  -0.000009  -0.004117   0.064396
     5  C   -0.000001  -0.000001  -0.000001   0.000001   0.000868   0.027986
     6  C   -0.000013  -0.000086  -0.000006   0.000019  -0.001420  -0.014652
     7  C   -0.000029  -0.000474  -0.000044   0.000101  -0.009737   0.006951
     8  C    0.000306   0.000821   0.000073  -0.000118   0.037475  -0.220687
     9  C    0.002857  -0.001601  -0.000635  -0.000277  -0.068760   0.324126
    10  N   -0.000224   0.002642  -0.000493   0.000159  -0.071574  -0.050085
    11  C   -0.007797  -0.028358   0.005145  -0.000689   0.567624   0.030829
    12  C   -0.007183  -0.097531  -0.007770   0.023141  -0.630363  -0.004896
    13  C    0.001867   0.102422   0.057833  -0.000848   0.767502  -0.010691
    14  C   -0.156362   0.058193  -0.105998   0.099269  -0.400535   0.022862
    15  N   -0.447534  -0.302566   0.290261  -0.183709   0.459798  -0.002066
    16  C    0.357881   0.015980   0.011617  -0.087218  -0.052045   0.000380
    17  C   -0.065010   0.002878  -0.012401   0.016424  -0.041788   0.000016
    18  C    0.082816   0.318280  -0.075713  -0.026527   0.196214  -0.000348
    19  C   -0.334820   0.118494   0.264932   0.141567   0.020141   0.000044
    20  C   -0.024170  -0.135016   0.018597   0.017737  -5.483492   0.171118
    21  C    0.068316   0.062651  -0.001870  -0.017761   2.392426  -0.763602
    22  O   -0.001171  -0.000368  -0.000178   0.000349  -0.615322  -0.372960
    23  C   -0.001685  -0.002012   0.000167   0.000360  -0.754034   2.004519
    24  C   -0.000445   0.000087   0.000046   0.000043   0.122876  -3.125554
    25  H   -0.000000   0.000000   0.000000  -0.000000  -0.000069  -0.004582
    26  H    0.000000   0.000000  -0.000000  -0.000000  -0.000039   0.001934
    27  H   -0.000001  -0.000003   0.000000   0.000000   0.000123  -0.001421
    28  H    0.000085   0.000037  -0.000023  -0.000028   0.000460   0.006864
    29  H   -0.001773  -0.003232   0.002034   0.001566  -0.005088   0.002459
    30  H    0.046403  -0.111390  -0.004533  -0.020468  -0.060721  -0.000553
    31  H    0.034630   0.000729   0.002059  -0.006759  -0.309576   0.002490
    32  H    0.037271  -0.003669   0.007983   0.001462   0.064325  -0.000038
    33  H   -0.002603   0.002458  -0.000425  -0.000869  -0.177362   0.000885
    34  H    0.010336  -0.000678  -0.001599   0.000281  -0.016478  -0.000011
    35  H   -0.013843  -0.000475   0.001304   0.003696  -0.005526   0.000104
    36  H   -0.909265  -0.109923  -0.175709   0.235938   0.026924  -0.000044
    37  H    3.108861   0.174276  -0.164091  -0.177669  -0.021379   0.000019
    38  H    0.174276   2.022104  -0.408755  -0.346543  -0.004508   0.000013
    39  H   -0.164091  -0.408755   2.076313  -0.454916   0.002616   0.000002
    40  H   -0.177669  -0.346543  -0.454916   2.119823   0.001450  -0.000005
    41  H   -0.021379  -0.004508   0.002616   0.001450   6.796700  -0.045964
    42  H    0.000019   0.000013   0.000002  -0.000005  -0.045964   3.453341
 Mulliken charges:
               1
     1  O   -0.777873
     2  C   -0.840606
     3  C    2.115779
     4  C    0.486327
     5  C    0.325783
     6  C   -0.223497
     7  C    1.195545
     8  C    1.494484
     9  C   -0.246016
    10  N   -0.172069
    11  C    0.348029
    12  C    0.434862
    13  C    1.804852
    14  C    0.568715
    15  N   -0.131165
    16  C    0.879114
    17  C    1.241129
    18  C    0.970812
    19  C    1.220733
    20  C    1.687278
    21  C    0.017085
    22  O   -0.534472
    23  C    0.042436
    24  C    0.917878
    25  H   -1.039389
    26  H   -0.769396
    27  H   -0.805233
    28  H   -1.116652
    29  H   -0.919529
    30  H   -1.518327
    31  H   -0.411725
    32  H   -0.585651
    33  H   -0.334168
    34  H   -0.320505
    35  H   -0.343582
    36  H   -0.418238
    37  H   -0.588931
    38  H   -0.325071
    39  H   -0.325846
    40  H   -0.338870
    41  H   -1.633744
    42  H   -1.030284
 Sum of Mulliken charges =  -0.00000
 Mulliken charges with hydrogens summed into heavy atoms:
               1
     1  O   -0.777873
     2  C   -0.840606
     3  C    2.115779
     4  C   -0.553062
     5  C   -0.443613
     6  C   -1.028730
     7  C    0.078893
     8  C    1.494484
     9  C   -0.246016
    10  N   -0.172069
    11  C    0.348029
    12  C   -0.484668
    13  C    0.286525
    14  C    0.568715
    15  N   -0.131165
    16  C   -0.118263
    17  C    0.242874
    18  C   -0.036357
    19  C    0.230946
    20  C    0.053535
    21  C    0.017085
    22  O   -0.534472
    23  C    0.042436
    24  C   -0.112406
 Electronic spatial extent (au):  <R**2>=          11119.6919
 Charge=             -0.0000 electrons
 Dipole moment (field-independent basis, Debye):
    X=             15.3535    Y=             -5.6249    Z=              0.6137  Tot=             16.3630
 Quadrupole moment (field-independent basis, Debye-Ang):
   XX=           -118.3012   YY=           -146.3690   ZZ=           -145.9567
   XY=             32.2854   XZ=             -2.8635   YZ=             -0.4276
 Traceless Quadrupole moment (field-independent basis, Debye-Ang):
   XX=             18.5744   YY=             -9.4933   ZZ=             -9.0811
   XY=             32.2854   XZ=             -2.8635   YZ=             -0.4276
 Octapole moment (field-independent basis, Debye-Ang**2):
  XXX=            368.1341  YYY=            -64.7869  ZZZ=             -2.3646  XYY=            106.3798
  XXY=           -164.4064  XXZ=             19.0132  XZZ=             19.7957  YZZ=              7.7413
  YYZ=              8.0722  XYZ=            -12.2742
 Hexadecapole moment (field-independent basis, Debye-Ang**3):
 XXXX=         -11451.6822 YYYY=          -2175.7654 ZZZZ=           -321.7198 XXXY=            857.6427
 XXXZ=            -63.2572 YYYX=            328.3042 YYYZ=            -10.7732 ZZZX=              4.2214
 ZZZY=             -1.2194 XXYY=          -2679.6141 XXZZ=          -2316.9846 YYZZ=           -432.1839
 XXYZ=            -12.1354 YYXZ=            -36.6119 ZZXY=            -11.0514
 N-N= 1.892664737969D+03 E-N=-6.185684542658D+03  KE= 1.026480475233D+03
 Leave Link  601 at Tue Feb 27 21:36:49 2024, MaxMem=  1342177280 cpu:               1.9 elap:               0.3
 (Enter /apps/x86-64/apps/gaussian_g16c01_avx2/g16/l9999.exe)
 Electronic transition elements 
                 1             2             3             4             5 
      1  -0.103242D+04 -0.103238D+04 -0.103237D+04 -0.103236D+04 -0.103236D+04
      2   0.327347D+01  0.137006D+00 -0.110090D-01 -0.829872D-02 -0.263267D+00
      3   0.272801D+01 -0.120488D+00  0.897162D-02  0.209745D-01  0.651390D+00
      4   0.378739D+00  0.379639D-01  0.568085D-01  0.966192D-01 -0.124835D+00
      5  -0.297492D+00 -0.176074D-01  0.199783D-02  0.193119D-02  0.398960D-01
      6  -0.248160D+00  0.156627D-01 -0.149273D-02 -0.340507D-02 -0.993124D-01
      7  -0.344221D-01 -0.497917D-02 -0.104150D-01 -0.175045D-01  0.189261D-01
      8   0.153743D+00 -0.718093D-01  0.794615D+00  0.646770D-01  0.228066D-01
      9  -0.881338D-01  0.474302D-01  0.121460D+00  0.227654D+00 -0.236037D-01
     10  -0.846002D+00  0.406182D+00  0.134179D+00 -0.237166D-01 -0.318556D-01
     11   0.390939D+00  0.751740D+00 -0.144237D-02  0.120675D-01 -0.390342D+00
     12   0.579986D-01  0.320991D+00  0.124580D-01  0.106095D-01  0.182404D+00
     13  -0.840651D-02  0.347581D-01 -0.159865D-01 -0.194197D-01 -0.377034D-02
     14   0.423355D-01  0.250909D+00 -0.160114D-01 -0.116290D-01 -0.188838D+00
     15   0.104510D+00  0.991545D-01 -0.606313D-02 -0.234578D-01 -0.355180D-01
     16  -0.162987D-01  0.255874D-01  0.702954D-01  0.493003D-01 -0.456694D-01
                 6 
      1  -0.103235D+04
      2  -0.298360D-01
      3   0.493079D-01
      4  -0.990750D-02
      5   0.468229D-02
      6  -0.779958D-02
      7   0.159126D-02
      8   0.283862D-01
      9  -0.264037D-02
     10  -0.162260D+00
     11   0.566320D+00
     12   0.131464D+01
     13   0.213382D-01
     14   0.959249D+00
     15  -0.713511D-02
     16   0.736026D-01
 Unable to Open any file for archive entry.
 1\1\ASC-ASA-X_DMC_AVX2\SP\RCAM-B3LYP TD-FC\Aug-CC-pVDZ\C20H18N2O2\AUBM
 XB002\27-Feb-2024\0\\#p td(nstates=6) cam-b3lyp/aug-cc-pvdz int=(ultra
 fine,acc2e=12) scrf=(smd,solvent=water) geom=allcheck guess=read\\GS o
 pt freq in water\\0,1\O,0,1.139727402,0.0493544634,-0.9246508426\C,0,2
 .3747552464,0.0454199794,-0.6972730744\C,0,3.1020039238,-1.2235187741,
 -0.449277427\C,0,2.4021626423,-2.4403522889,-0.470513345\C,0,3.0575742
 676,-3.6392395434,-0.2394082099\C,0,4.4352058895,-3.6402240638,0.01938
 64811\C,0,5.1433021847,-2.4495842572,0.0443960543\C,0,4.4930680597,-1.
 2238955275,-0.1885154862\C,0,5.2266284822,0.0389186345,-0.1634321457\N
 ,0,6.5197175225,0.067173469,0.0849349655\C,0,7.1610411414,1.2616108027
 ,0.1015404301\C,0,8.5463404908,1.353483978,0.3722690196\C,0,9.19377165
 86,2.5614094645,0.3888852163\C,0,8.4942368707,3.7878492197,0.129666633
 1\N,0,9.1410982229,4.9814023715,0.1406022034\C,0,8.4728537517,6.236601
 7196,-0.236182089\C,0,7.7895739041,6.9456520992,0.933066982\C,0,10.554
 3795816,5.1102434017,0.5314919119\C,0,11.5311235024,4.9616804091,-0.63
 44569038\C,0,7.1020915883,3.7053284875,-0.1417913241\C,0,6.483006863,2
 .4783998101,-0.1492119894\O,0,5.1334198238,2.4415280626,-0.4041833382\
 C,0,4.4741106121,1.2449226804,-0.4144290072\C,0,3.133164912,1.26100493
 85,-0.6669934546\H,0,1.3382325817,-2.4272001745,-0.6711139686\H,0,2.50
 71199319,-4.5727518728,-0.2582789105\H,0,4.9514996516,-4.5759913939,0.
 2012939763\H,0,6.206499171,-2.4544565225,0.2448390075\H,0,9.0940609836
 ,0.437625991,0.5622325925\H,0,10.2556467976,2.5773555164,0.5841143778\
 H,0,7.7592480293,6.0380546415,-1.0369299877\H,0,9.2404316515,6.8846707
 213,-0.6635234477\H,0,6.9955983738,6.3316193067,1.3649361115\H,0,7.345
 5015817,7.8820712317,0.5836413812\H,0,8.5091238221,7.184496613,1.72070
 71586\H,0,10.7787247711,4.3885184241,1.3170920308\H,0,10.6648133514,6.
 0981710213,0.9828512165\H,0,11.4647739504,3.9688805698,-1.086213807\H,
 0,12.5541166255,5.1071777927,-0.2759017214\H,0,11.3341827154,5.7076364
 55,-1.4090542003\H,0,6.5012574414,4.5842808638,-0.3230885327\H,0,2.624
 0100151,2.199871309,-0.8481244869\\Version=ES64L-G16RevC.01\State=1-A\
 HF=-1032.5121722\RMSD=8.452e-09\PG=C01 [X(C20H18N2O2)]\\@
 The archive entry for this job was punched.


 THE POLHOLDE ROLLS WITHOUT SLIPPING ON THE HERPOLHOLDE LYING IN
 THE INVARIABLE PLANE.
 H.GOLDSTEIN, "CLASSICAL MECHANICS", PG 161
 Job cpu time:       0 days 13 hours 26 minutes 27.7 seconds.
 Elapsed time:       0 days  1 hours 20 minutes 41.1 seconds.
 File lengths (MBytes):  RWF=   2362 Int=      0 D2E=      0 Chk=    146 Scr=      1
 Normal termination of Gaussian 16 at Tue Feb 27 21:36:50 2024.
