 Entering Gaussian System, Link 0=/apps/x86-64/apps/gaussian_g16c01_avx2/g16/g16
 Initial command:
 /apps/x86-64/apps/gaussian_g16c01_avx2/g16/l1.exe "/scratch/aubmxb002.watergjfG16.22582.asax-pbs1/Gau-3317705.inp" -scrdir="/scratch/aubmxb002.watergjfG16.22582.asax-pbs1/"
 Entering Link 1 = /apps/x86-64/apps/gaussian_g16c01_avx2/g16/l1.exe PID=   3317706.
  
 Copyright (c) 1988-2019, Gaussian, Inc.  All Rights Reserved.
  
 This is part of the Gaussian(R) 16 program.  It is based on
 the Gaussian(R) 09 system (copyright 2009, Gaussian, Inc.),
 the Gaussian(R) 03 system (copyright 2003, Gaussian, Inc.),
 the Gaussian(R) 98 system (copyright 1998, Gaussian, Inc.),
 the Gaussian(R) 94 system (copyright 1995, Gaussian, Inc.),
 the Gaussian 92(TM) system (copyright 1992, Gaussian, Inc.),
 the Gaussian 90(TM) system (copyright 1990, Gaussian, Inc.),
 the Gaussian 88(TM) system (copyright 1988, Gaussian, Inc.),
 the Gaussian 86(TM) system (copyright 1986, Carnegie Mellon
 University), and the Gaussian 82(TM) system (copyright 1983,
 Carnegie Mellon University). Gaussian is a federally registered
 trademark of Gaussian, Inc.
  
 This software contains proprietary and confidential information,
 including trade secrets, belonging to Gaussian, Inc.
  
 This software is provided under written license and may be
 used, copied, transmitted, or stored only in accord with that
 written license.
  
 The following legend is applicable only to US Government
 contracts under FAR:
  
                    RESTRICTED RIGHTS LEGEND
  
 Use, reproduction and disclosure by the US Government is
 subject to restrictions as set forth in subparagraphs (a)
 and (c) of the Commercial Computer Software - Restricted
 Rights clause in FAR 52.227-19.
  
 Gaussian, Inc.
 340 Quinnipiac St., Bldg. 40, Wallingford CT 06492
  
  
 ---------------------------------------------------------------
 Warning -- This program may not be used in any manner that
 competes with the business of Gaussian, Inc. or will provide
 assistance to any competitor of Gaussian, Inc.  The licensee
 of this program is prohibited from giving any competitor of
 Gaussian, Inc. access to this program.  By using this program,
 the user acknowledges that Gaussian, Inc. is engaged in the
 business of creating and licensing software in the field of
 computational chemistry and represents and warrants to the
 licensee that it is not a competitor of Gaussian, Inc. and that
 it will not use this program in any manner prohibited above.
 ---------------------------------------------------------------
  

 Cite this work as:
 Gaussian 16, Revision C.01,
 M. J. Frisch, G. W. Trucks, H. B. Schlegel, G. E. Scuseria, 
 M. A. Robb, J. R. Cheeseman, G. Scalmani, V. Barone, 
 G. A. Petersson, H. Nakatsuji, X. Li, M. Caricato, A. V. Marenich, 
 J. Bloino, B. G. Janesko, R. Gomperts, B. Mennucci, H. P. Hratchian, 
 J. V. Ortiz, A. F. Izmaylov, J. L. Sonnenberg, D. Williams-Young, 
 F. Ding, F. Lipparini, F. Egidi, J. Goings, B. Peng, A. Petrone, 
 T. Henderson, D. Ranasinghe, V. G. Zakrzewski, J. Gao, N. Rega, 
 G. Zheng, W. Liang, M. Hada, M. Ehara, K. Toyota, R. Fukuda, 
 J. Hasegawa, M. Ishida, T. Nakajima, Y. Honda, O. Kitao, H. Nakai, 
 T. Vreven, K. Throssell, J. A. Montgomery, Jr., J. E. Peralta, 
 F. Ogliaro, M. J. Bearpark, J. J. Heyd, E. N. Brothers, K. N. Kudin, 
 V. N. Staroverov, T. A. Keith, R. Kobayashi, J. Normand, 
 K. Raghavachari, A. P. Rendell, J. C. Burant, S. S. Iyengar, 
 J. Tomasi, M. Cossi, J. M. Millam, M. Klene, C. Adamo, R. Cammi, 
 J. W. Ochterski, R. L. Martin, K. Morokuma, O. Farkas, 
 J. B. Foresman, and D. J. Fox, Gaussian, Inc., Wallingford CT, 2019.
 
 ******************************************
 Gaussian 16:  ES64L-G16RevC.01  3-Jul-2019
                28-Feb-2024 
 ******************************************
 %nprocshared=10
 Will use up to   10 processors via shared memory.
 %mem=10GB
 %oldchk=/home/aubmxb002/EI/SMD/ei/abs/wat-1.chk
 %chk=wat-2
 Copying data from "/home/aubmxb002/EI/SMD/ei/abs/wat-1.chk" to current chk file "wat-2.chk"
 IOpt=  2 FromEx=T IUOpen= 4 IOptOp= 5 NList=   0 IFRang= 0 IUIn= 4 IUOut= 2.
 Default route: MaxDisk=300GB
 ----------------------------------------------------------------------
 #p cam-b3lyp/aug-cc-pvdz scrf=(solvent=water,read) int=(ultrafine,acc2
 e=12) guess=read geom=check
 ----------------------------------------------------------------------
 1/29=2,38=1,40=2,172=1/1;
 2/12=2,40=1/2;
 3/5=16,7=10,11=2,14=-4,25=1,27=12,30=1,70=2203,72=1,74=-40,75=-5,116=-2/1,2,3;
 4/5=1/1;
 5/5=2,38=6,53=1,87=12/2;
 6/7=2,8=2,9=2,10=2,28=1,87=12/1;
 99/5=1,9=1/99;
 Leave Link    1 at Wed Feb 28 09:57:06 2024, MaxMem=  1342177280 cpu:               4.0 elap:               0.5
 (Enter /apps/x86-64/apps/gaussian_g16c01_avx2/g16/l101.exe)
 ----------------------------------------------------------------------
 water: prepare for state-specific non-eq solvation by saving the solve
 nt reaction field from the ground state
 ----------------------------------------------------------------------
 Structure from the checkpoint file:  "wat-2.chk"
 Charge =  0 Multiplicity = 1
 Redundant internal coordinates found in file.  (old form).
 O,0,1.139727402,0.0493544634,-0.9246508426
 C,0,2.3747552464,0.0454199794,-0.6972730744
 C,0,3.1020039238,-1.2235187741,-0.449277427
 C,0,2.4021626423,-2.4403522889,-0.470513345
 C,0,3.0575742676,-3.6392395434,-0.2394082099
 C,0,4.4352058895,-3.6402240638,0.0193864811
 C,0,5.1433021847,-2.4495842572,0.0443960543
 C,0,4.4930680597,-1.2238955275,-0.1885154862
 C,0,5.2266284822,0.0389186345,-0.1634321457
 N,0,6.5197175225,0.067173469,0.0849349655
 C,0,7.1610411414,1.2616108027,0.1015404301
 C,0,8.5463404908,1.353483978,0.3722690196
 C,0,9.1937716586,2.5614094645,0.3888852163
 C,0,8.4942368707,3.7878492197,0.1296666331
 N,0,9.1410982229,4.9814023715,0.1406022034
 C,0,8.4728537517,6.2366017196,-0.236182089
 C,0,7.7895739041,6.9456520992,0.933066982
 C,0,10.5543795816,5.1102434017,0.5314919119
 C,0,11.5311235024,4.9616804091,-0.6344569038
 C,0,7.1020915883,3.7053284875,-0.1417913241
 C,0,6.483006863,2.4783998101,-0.1492119894
 O,0,5.1334198238,2.4415280626,-0.4041833382
 C,0,4.4741106121,1.2449226804,-0.4144290072
 C,0,3.133164912,1.2610049385,-0.6669934546
 H,0,1.3382325817,-2.4272001745,-0.6711139686
 H,0,2.5071199319,-4.5727518728,-0.2582789105
 H,0,4.9514996516,-4.5759913939,0.2012939763
 H,0,6.206499171,-2.4544565225,0.2448390075
 H,0,9.0940609836,0.437625991,0.5622325925
 H,0,10.2556467976,2.5773555164,0.5841143778
 H,0,7.7592480293,6.0380546415,-1.0369299877
 H,0,9.2404316515,6.8846707213,-0.6635234477
 H,0,6.9955983738,6.3316193067,1.3649361115
 H,0,7.3455015817,7.8820712317,0.5836413812
 H,0,8.5091238221,7.184496613,1.7207071586
 H,0,10.7787247711,4.3885184241,1.3170920308
 H,0,10.6648133514,6.0981710213,0.9828512165
 H,0,11.4647739504,3.9688805698,-1.086213807
 H,0,12.5541166255,5.1071777927,-0.2759017214
 H,0,11.3341827154,5.707636455,-1.4090542003
 H,0,6.5012574414,4.5842808638,-0.3230885327
 H,0,2.6240100151,2.199871309,-0.8481244869
 Recover connectivity data from disk.
 ITRead=  0  0  0  0  0  0  0  0  0  0  0  0  0  0  0  0  0  0  0  0
 ITRead=  0  0  0  0  0  0  0  0  0  0  0  0  0  0  0  0  0  0  0  0
 ITRead=  0  0
 MicOpt= -1 -1 -1 -1 -1 -1 -1 -1 -1 -1 -1 -1 -1 -1 -1 -1 -1 -1 -1 -1
 MicOpt= -1 -1 -1 -1 -1 -1 -1 -1 -1 -1 -1 -1 -1 -1 -1 -1 -1 -1 -1 -1
 MicOpt= -1 -1
                           ----------------------------
                           !    Current Parameters    !
                           ! (Angstroms and Degrees)  !
 --------------------------                            --------------------------
 ! Name  Definition              Value                                          !
 --------------------------------------------------------------------------------
 ! R1    R(1,2)                  1.2558                                         !
 ! R2    R(2,3)                  1.4834                                         !
 ! R3    R(2,24)                 1.4331                                         !
 ! R4    R(3,4)                  1.4039                                         !
 ! R5    R(3,8)                  1.4153                                         !
 ! R6    R(4,5)                  1.3858                                         !
 ! R7    R(4,25)                 1.0828                                         !
 ! R8    R(5,6)                  1.4017                                         !
 ! R9    R(5,26)                 1.0839                                         !
 ! R10   R(6,7)                  1.3855                                         !
 ! R11   R(6,27)                 1.0841                                         !
 ! R12   R(7,8)                  1.4069                                         !
 ! R13   R(7,28)                 1.0819                                         !
 ! R14   R(8,9)                  1.4606                                         !
 ! R15   R(9,10)                 1.317                                          !
 ! R16   R(9,23)                 1.4435                                         !
 ! R17   R(10,11)                1.3558                                         !
 ! R18   R(11,12)                1.4145                                         !
 ! R19   R(11,21)                1.4153                                         !
 ! R20   R(12,13)                1.3706                                         !
 ! R21   R(12,29)                1.0839                                         !
 ! R22   R(13,14)                1.4355                                         !
 ! R23   R(13,30)                1.0798                                         !
 ! R24   R(14,15)                1.3576                                         !
 ! R25   R(14,20)                1.4208                                         !
 ! R26   R(15,16)                1.4711                                         !
 ! R27   R(15,18)                1.472                                          !
 ! R28   R(16,17)                1.5286                                         !
 ! R29   R(16,31)                1.0908                                         !
 ! R30   R(16,32)                1.0917                                         !
 ! R31   R(17,33)                1.0927                                         !
 ! R32   R(17,34)                1.0937                                         !
 ! R33   R(17,35)                1.0932                                         !
 ! R34   R(18,19)                1.5282                                         !
 ! R35   R(18,36)                1.0901                                         !
 ! R36   R(18,37)                1.0918                                         !
 ! R37   R(19,38)                1.0928                                         !
 ! R38   R(19,39)                1.0937                                         !
 ! R39   R(19,40)                1.0933                                         !
 ! R40   R(20,21)                1.3743                                         !
 ! R41   R(20,41)                1.08                                           !
 ! R42   R(21,22)                1.374                                          !
 ! R43   R(22,23)                1.3663                                         !
 ! R44   R(23,24)                1.3646                                         !
 ! R45   R(24,42)                1.0833                                         !
 ! A1    A(1,2,3)              121.0034                                         !
 ! A2    A(1,2,24)             121.4417                                         !
 ! A3    A(3,2,24)             117.5549                                         !
 ! A4    A(2,3,4)              119.6374                                         !
 ! A5    A(2,3,8)              120.8559                                         !
 ! A6    A(4,3,8)              119.5065                                         !
 ! A7    A(3,4,5)              120.7693                                         !
 ! A8    A(3,4,25)             118.8231                                         !
 ! A9    A(5,4,25)             120.4076                                         !
 ! A10   A(4,5,6)              119.751                                          !
 ! A11   A(4,5,26)             120.1342                                         !
 ! A12   A(6,5,26)             120.1147                                         !
 ! A13   A(5,6,7)              120.3323                                         !
 ! A14   A(5,6,27)             119.9757                                         !
 ! A15   A(7,6,27)             119.692                                          !
 ! A16   A(6,7,8)              120.6286                                         !
 ! A17   A(6,7,28)             120.1121                                         !
 ! A18   A(8,7,28)             119.2593                                         !
 ! A19   A(3,8,7)              119.0123                                         !
 ! A20   A(3,8,9)              119.7725                                         !
 ! A21   A(7,8,9)              121.2151                                         !
 ! A22   A(8,9,10)             120.9894                                         !
 ! A23   A(8,9,23)             117.227                                          !
 ! A24   A(10,9,23)            121.7828                                         !
 ! A25   A(9,10,11)            119.0535                                         !
 ! A26   A(10,11,12)           121.5214                                         !
 ! A27   A(10,11,21)           121.9116                                         !
 ! A28   A(12,11,21)           116.567                                          !
 ! A29   A(11,12,13)           121.479                                          !
 ! A30   A(11,12,29)           118.2649                                         !
 ! A31   A(13,12,29)           120.2548                                         !
 ! A32   A(12,13,14)           121.371                                          !
 ! A33   A(12,13,30)           118.6686                                         !
 ! A34   A(14,13,30)           119.9506                                         !
 ! A35   A(13,14,15)           121.1627                                         !
 ! A36   A(13,14,20)           117.5401                                         !
 ! A37   A(15,14,20)           121.297                                          !
 ! A38   A(14,15,16)           122.1164                                         !
 ! A39   A(14,15,18)           122.4494                                         !
 ! A40   A(16,15,18)           115.434                                          !
 ! A41   A(15,16,17)           113.7602                                         !
 ! A42   A(15,16,31)           109.2621                                         !
 ! A43   A(15,16,32)           106.702                                          !
 ! A44   A(17,16,31)           110.7021                                         !
 ! A45   A(17,16,32)           109.7757                                         !
 ! A46   A(31,16,32)           106.3002                                         !
 ! A47   A(16,17,33)           111.4969                                         !
 ! A48   A(16,17,34)           109.527                                          !
 ! A49   A(16,17,35)           110.9908                                         !
 ! A50   A(33,17,34)           108.2028                                         !
 ! A51   A(33,17,35)           108.4376                                         !
 ! A52   A(34,17,35)           108.0812                                         !
 ! A53   A(15,18,19)           113.7364                                         !
 ! A54   A(15,18,36)           109.33                                           !
 ! A55   A(15,18,37)           106.6252                                         !
 ! A56   A(19,18,36)           110.727                                          !
 ! A57   A(19,18,37)           109.7998                                         !
 ! A58   A(36,18,37)           106.2806                                         !
 ! A59   A(18,19,38)           111.4023                                         !
 ! A60   A(18,19,39)           109.5573                                         !
 ! A61   A(18,19,40)           111.0442                                         !
 ! A62   A(38,19,39)           108.2507                                         !
 ! A63   A(38,19,40)           108.4246                                         !
 ! A64   A(39,19,40)           108.0587                                         !
 ! A65   A(14,20,21)           119.6228                                         !
 ! A66   A(14,20,41)           122.0                                            !
 ! A67   A(21,20,41)           118.3629                                         !
 ! A68   A(11,21,20)           123.4197                                         !
 ! A69   A(11,21,22)           118.7096                                         !
 ! A70   A(20,21,22)           117.8687                                         !
 ! A71   A(21,22,23)           119.9274                                         !
 ! A72   A(9,23,22)            118.6105                                         !
 ! A73   A(9,23,24)            123.6621                                         !
 ! A74   A(22,23,24)           117.7271                                         !
 ! A75   A(2,24,23)            120.927                                          !
 ! A76   A(2,24,42)            118.8733                                         !
 ! A77   A(23,24,42)           120.1997                                         !
 ! D1    D(1,2,3,4)              0.1016                                         !
 ! D2    D(1,2,3,8)           -179.768                                          !
 ! D3    D(24,2,3,4)          -179.9149                                         !
 ! D4    D(24,2,3,8)             0.2155                                         !
 ! D5    D(1,2,24,23)          179.7782                                         !
 ! D6    D(1,2,24,42)           -0.1922                                         !
 ! D7    D(3,2,24,23)           -0.2052                                         !
 ! D8    D(3,2,24,42)          179.8244                                         !
 ! D9    D(2,3,4,5)           -179.8739                                         !
 ! D10   D(2,3,4,25)             0.1286                                         !
 ! D11   D(8,3,4,5)             -0.0025                                         !
 ! D12   D(8,3,4,25)           180.0                                            !
 ! D13   D(2,3,8,7)            179.856                                          !
 ! D14   D(2,3,8,9)             -0.0558                                         !
 ! D15   D(4,3,8,7)             -0.0138                                         !
 ! D16   D(4,3,8,9)           -179.9256                                         !
 ! D17   D(3,4,5,6)              0.0254                                         !
 ! D18   D(3,4,5,26)          -179.9977                                         !
 ! D19   D(25,4,5,6)          -179.9772                                         !
 ! D20   D(25,4,5,26)           -0.0002                                         !
 ! D21   D(4,5,6,7)             -0.032                                          !
 ! D22   D(4,5,6,27)           179.962                                          !
 ! D23   D(26,5,6,7)           179.9911                                         !
 ! D24   D(26,5,6,27)           -0.0149                                         !
 ! D25   D(5,6,7,8)              0.0157                                         !
 ! D26   D(5,6,7,28)           179.9794                                         !
 ! D27   D(27,6,7,8)          -179.9784                                         !
 ! D28   D(27,6,7,28)           -0.0146                                         !
 ! D29   D(6,7,8,3)              0.0072                                         !
 ! D30   D(6,7,8,9)            179.9177                                         !
 ! D31   D(28,7,8,3)          -179.9569                                         !
 ! D32   D(28,7,8,9)            -0.0463                                         !
 ! D33   D(3,8,9,10)           179.5768                                         !
 ! D34   D(3,8,9,23)            -0.1136                                         !
 ! D35   D(7,8,9,10)            -0.3331                                         !
 ! D36   D(7,8,9,23)           179.9765                                         !
 ! D37   D(8,9,10,11)         -179.8547                                         !
 ! D38   D(23,9,10,11)          -0.1786                                         !
 ! D39   D(8,9,23,22)         -179.6844                                         !
 ! D40   D(8,9,23,24)            0.1293                                         !
 ! D41   D(10,9,23,22)           0.6278                                         !
 ! D42   D(10,9,23,24)        -179.5585                                         !
 ! D43   D(9,10,11,12)         179.5255                                         !
 ! D44   D(9,10,11,21)          -0.4348                                         !
 ! D45   D(10,11,12,13)       -179.9975                                         !
 ! D46   D(10,11,12,29)          0.4074                                         !
 ! D47   D(21,11,12,13)         -0.0352                                         !
 ! D48   D(21,11,12,29)       -179.6303                                         !
 ! D49   D(10,11,21,20)       -179.9192                                         !
 ! D50   D(10,11,21,22)          0.5985                                         !
 ! D51   D(12,11,21,20)          0.1187                                         !
 ! D52   D(12,11,21,22)       -179.3636                                         !
 ! D53   D(11,12,13,14)         -0.1106                                         !
 ! D54   D(11,12,13,30)       -178.9709                                         !
 ! D55   D(29,12,13,14)        179.4766                                         !
 ! D56   D(29,12,13,30)          0.6163                                         !
 ! D57   D(12,13,14,15)       -179.6663                                         !
 ! D58   D(12,13,14,20)          0.1749                                         !
 ! D59   D(30,13,14,15)         -0.8204                                         !
 ! D60   D(30,13,14,20)        179.0208                                         !
 ! D61   D(13,14,15,16)        174.5616                                         !
 ! D62   D(13,14,15,18)         -5.5649                                         !
 ! D63   D(20,14,15,16)         -5.2736                                         !
 ! D64   D(20,14,15,18)        174.5999                                         !
 ! D65   D(13,14,20,21)         -0.0934                                         !
 ! D66   D(13,14,20,41)        178.507                                          !
 ! D67   D(15,14,20,21)        179.7476                                         !
 ! D68   D(15,14,20,41)         -1.6521                                         !
 ! D69   D(14,15,16,17)         89.0222                                         !
 ! D70   D(14,15,16,31)        -35.2406                                         !
 ! D71   D(14,15,16,32)       -149.7765                                         !
 ! D72   D(18,15,16,17)        -90.8596                                         !
 ! D73   D(18,15,16,31)        144.8776                                         !
 ! D74   D(18,15,16,32)         30.3417                                         !
 ! D75   D(14,15,18,19)         89.7727                                         !
 ! D76   D(14,15,18,36)        -34.5579                                         !
 ! D77   D(14,15,18,37)       -149.064                                          !
 ! D78   D(16,15,18,19)        -90.3459                                         !
 ! D79   D(16,15,18,36)        145.3235                                         !
 ! D80   D(16,15,18,37)         30.8174                                         !
 ! D81   D(15,16,17,33)        -62.1142                                         !
 ! D82   D(15,16,17,34)        178.1565                                         !
 ! D83   D(15,16,17,35)         58.8959                                         !
 ! D84   D(31,16,17,33)         61.3686                                         !
 ! D85   D(31,16,17,34)        -58.3607                                         !
 ! D86   D(31,16,17,35)       -177.6213                                         !
 ! D87   D(32,16,17,33)        178.4157                                         !
 ! D88   D(32,16,17,34)         58.6864                                         !
 ! D89   D(32,16,17,35)        -60.5742                                         !
 ! D90   D(15,18,19,38)        -62.4283                                         !
 ! D91   D(15,18,19,39)        177.8228                                         !
 ! D92   D(15,18,19,40)         58.5374                                         !
 ! D93   D(36,18,19,38)         61.146                                          !
 ! D94   D(36,18,19,39)        -58.603                                          !
 ! D95   D(36,18,19,40)       -177.8884                                         !
 ! D96   D(37,18,19,38)        178.1985                                         !
 ! D97   D(37,18,19,39)         58.4496                                         !
 ! D98   D(37,18,19,40)        -60.8358                                         !
 ! D99   D(14,20,21,11)         -0.0525                                         !
 ! D100  D(14,20,21,22)        179.4339                                         !
 ! D101  D(41,20,21,11)       -178.7036                                         !
 ! D102  D(41,20,21,22)          0.7828                                         !
 ! D103  D(11,21,22,23)         -0.1281                                         !
 ! D104  D(20,21,22,23)       -179.6393                                         !
 ! D105  D(21,22,23,9)          -0.4483                                         !
 ! D106  D(21,22,23,24)        179.727                                          !
 ! D107  D(9,23,24,2)            0.0354                                         !
 ! D108  D(9,23,24,42)        -179.9946                                         !
 ! D109  D(22,23,24,2)         179.8506                                         !
 ! D110  D(22,23,24,42)         -0.1795                                         !
 --------------------------------------------------------------------------------
 NAtoms=     42 NQM=       42 NQMF=       0 NMMI=      0 NMMIF=      0
                NMic=       0 NMicF=      0.
                    Isotopes and Nuclear Properties:
 (Nuclear quadrupole moments (NQMom) in fm**2, nuclear magnetic moments (NMagM)
  in nuclear magnetons)

  Atom         1           2           3           4           5           6           7           8           9          10
 IAtWgt=          16          12          12          12          12          12          12          12          12          14
 AtmWgt=  15.9949146  12.0000000  12.0000000  12.0000000  12.0000000  12.0000000  12.0000000  12.0000000  12.0000000  14.0030740
 NucSpn=           0           0           0           0           0           0           0           0           0           2
 AtZEff=   5.6000000   3.6000000   3.6000000   3.6000000   3.6000000   3.6000000   3.6000000   3.6000000   3.6000000   4.5500000
 NQMom=    0.0000000   0.0000000   0.0000000   0.0000000   0.0000000   0.0000000   0.0000000   0.0000000   0.0000000   2.0440000
 NMagM=    0.0000000   0.0000000   0.0000000   0.0000000   0.0000000   0.0000000   0.0000000   0.0000000   0.0000000   0.4037610
 AtZNuc=   8.0000000   6.0000000   6.0000000   6.0000000   6.0000000   6.0000000   6.0000000   6.0000000   6.0000000   7.0000000

  Atom        11          12          13          14          15          16          17          18          19          20
 IAtWgt=          12          12          12          12          14          12          12          12          12          12
 AtmWgt=  12.0000000  12.0000000  12.0000000  12.0000000  14.0030740  12.0000000  12.0000000  12.0000000  12.0000000  12.0000000
 NucSpn=           0           0           0           0           2           0           0           0           0           0
 AtZEff=   3.6000000   3.6000000   3.6000000   3.6000000   4.5500000   3.6000000   3.6000000   3.6000000   3.6000000   3.6000000
 NQMom=    0.0000000   0.0000000   0.0000000   0.0000000   2.0440000   0.0000000   0.0000000   0.0000000   0.0000000   0.0000000
 NMagM=    0.0000000   0.0000000   0.0000000   0.0000000   0.4037610   0.0000000   0.0000000   0.0000000   0.0000000   0.0000000
 AtZNuc=   6.0000000   6.0000000   6.0000000   6.0000000   7.0000000   6.0000000   6.0000000   6.0000000   6.0000000   6.0000000

  Atom        21          22          23          24          25          26          27          28          29          30
 IAtWgt=          12          16          12          12           1           1           1           1           1           1
 AtmWgt=  12.0000000  15.9949146  12.0000000  12.0000000   1.0078250   1.0078250   1.0078250   1.0078250   1.0078250   1.0078250
 NucSpn=           0           0           0           0           1           1           1           1           1           1
 AtZEff=   3.6000000   5.6000000   3.6000000   3.6000000   1.0000000   1.0000000   1.0000000   1.0000000   1.0000000   1.0000000
 NQMom=    0.0000000   0.0000000   0.0000000   0.0000000   0.0000000   0.0000000   0.0000000   0.0000000   0.0000000   0.0000000
 NMagM=    0.0000000   0.0000000   0.0000000   0.0000000   2.7928460   2.7928460   2.7928460   2.7928460   2.7928460   2.7928460
 AtZNuc=   6.0000000   8.0000000   6.0000000   6.0000000   1.0000000   1.0000000   1.0000000   1.0000000   1.0000000   1.0000000

  Atom        31          32          33          34          35          36          37          38          39          40
 IAtWgt=           1           1           1           1           1           1           1           1           1           1
 AtmWgt=   1.0078250   1.0078250   1.0078250   1.0078250   1.0078250   1.0078250   1.0078250   1.0078250   1.0078250   1.0078250
 NucSpn=           1           1           1           1           1           1           1           1           1           1
 AtZEff=   1.0000000   1.0000000   1.0000000   1.0000000   1.0000000   1.0000000   1.0000000   1.0000000   1.0000000   1.0000000
 NQMom=    0.0000000   0.0000000   0.0000000   0.0000000   0.0000000   0.0000000   0.0000000   0.0000000   0.0000000   0.0000000
 NMagM=    2.7928460   2.7928460   2.7928460   2.7928460   2.7928460   2.7928460   2.7928460   2.7928460   2.7928460   2.7928460
 AtZNuc=   1.0000000   1.0000000   1.0000000   1.0000000   1.0000000   1.0000000   1.0000000   1.0000000   1.0000000   1.0000000

  Atom        41          42
 IAtWgt=           1           1
 AtmWgt=   1.0078250   1.0078250
 NucSpn=           1           1
 AtZEff=   1.0000000   1.0000000
 NQMom=    0.0000000   0.0000000
 NMagM=    2.7928460   2.7928460
 AtZNuc=   1.0000000   1.0000000
 Leave Link  101 at Wed Feb 28 09:57:07 2024, MaxMem=  1342177280 cpu:               3.9 elap:               0.4
 (Enter /apps/x86-64/apps/gaussian_g16c01_avx2/g16/l202.exe)
                          Input orientation:                          
 ---------------------------------------------------------------------
 Center     Atomic      Atomic             Coordinates (Angstroms)
 Number     Number       Type             X           Y           Z
 ---------------------------------------------------------------------
      1          8           0        1.139727    0.049354   -0.924651
      2          6           0        2.374755    0.045420   -0.697273
      3          6           0        3.102004   -1.223519   -0.449277
      4          6           0        2.402163   -2.440352   -0.470513
      5          6           0        3.057574   -3.639240   -0.239408
      6          6           0        4.435206   -3.640224    0.019386
      7          6           0        5.143302   -2.449584    0.044396
      8          6           0        4.493068   -1.223896   -0.188515
      9          6           0        5.226628    0.038919   -0.163432
     10          7           0        6.519718    0.067173    0.084935
     11          6           0        7.161041    1.261611    0.101540
     12          6           0        8.546340    1.353484    0.372269
     13          6           0        9.193772    2.561409    0.388885
     14          6           0        8.494237    3.787849    0.129667
     15          7           0        9.141098    4.981402    0.140602
     16          6           0        8.472854    6.236602   -0.236182
     17          6           0        7.789574    6.945652    0.933067
     18          6           0       10.554380    5.110243    0.531492
     19          6           0       11.531124    4.961680   -0.634457
     20          6           0        7.102092    3.705328   -0.141791
     21          6           0        6.483007    2.478400   -0.149212
     22          8           0        5.133420    2.441528   -0.404183
     23          6           0        4.474111    1.244923   -0.414429
     24          6           0        3.133165    1.261005   -0.666993
     25          1           0        1.338233   -2.427200   -0.671114
     26          1           0        2.507120   -4.572752   -0.258279
     27          1           0        4.951500   -4.575991    0.201294
     28          1           0        6.206499   -2.454457    0.244839
     29          1           0        9.094061    0.437626    0.562233
     30          1           0       10.255647    2.577356    0.584114
     31          1           0        7.759248    6.038055   -1.036930
     32          1           0        9.240432    6.884671   -0.663523
     33          1           0        6.995598    6.331619    1.364936
     34          1           0        7.345502    7.882071    0.583641
     35          1           0        8.509124    7.184497    1.720707
     36          1           0       10.778725    4.388518    1.317092
     37          1           0       10.664813    6.098171    0.982851
     38          1           0       11.464774    3.968881   -1.086214
     39          1           0       12.554117    5.107178   -0.275902
     40          1           0       11.334183    5.707636   -1.409054
     41          1           0        6.501257    4.584281   -0.323089
     42          1           0        2.624010    2.199871   -0.848124
 ---------------------------------------------------------------------
                    Distance matrix (angstroms):
                    1          2          3          4          5
     1  O    0.000000
     2  C    1.255791   0.000000
     3  C    2.386779   1.483441   0.000000
     4  C    2.828184   2.496244   1.403892   0.000000
     5  C    4.213481   3.775261   2.425227   1.385751   0.000000
     6  C    5.036306   4.282876   2.799560   2.411008   1.401729
     7  C    4.817920   3.799996   2.431841   2.789097   2.417868
     8  C    3.661687   2.521358   1.415294   2.435400   2.810181
     9  C    4.157201   2.901415   2.487868   3.770768   4.270763
    10  N    5.473927   4.218179   3.692159   4.852882   5.082237
    11  C    6.227267   5.002575   4.791143   6.056294   6.401017
    12  C    7.631558   6.398704   6.079201   7.270103   7.444998
    13  C    8.538350   7.349077   7.220653   8.478334   8.746183
    14  C    8.317255   7.220641   7.384115   8.732931   9.211686
    15  N    9.459482   8.417206   8.678690  10.043364  10.557895
    16  C    9.619291   8.702307   9.194827  10.592343  11.263104
    17  C    9.758611   8.921405   9.519430  10.912897  11.653602
    18  C   10.787429   9.698894   9.829362  11.156798  11.547720
    19  C   11.497664  10.392913  10.456626  11.753931  12.080270
    20  C    7.037670   6.004265   6.355217   7.743822   8.385125
    21  C    5.920490   4.805985   5.022492   6.399269   7.011935
    22  O    4.684331   3.665715   4.190615   5.594365   6.427443
    23  C    3.578802   2.434358   2.824375   4.228163   5.088443
    24  C    2.346972   1.433091   2.494239   3.777964   4.919445
    25  H    2.497400   2.681215   2.146846   1.082756   2.147451
    26  H    4.865972   4.640878   3.407012   2.145504   1.083883
    27  H    6.098457   5.366980   3.883677   3.392845   2.158397
    28  H    5.771391   4.671105   3.410996   3.871034   3.399108
    29  H    8.101420   6.847573   6.299786   7.357365   7.328208
    30  H    9.579517   8.376222   8.166343   9.379064   9.546543
    31  H    8.927216   8.063486   8.646717  10.045027  10.788503
    32  H   10.602412   9.690924  10.171968  11.565260  12.213119
    33  H    8.888210   8.069771   8.690889  10.070552  10.839741
    34  H   10.106336   9.368146  10.098810  11.493488  12.320890
    35  H   10.593214   9.718206  10.229394  11.607504  12.276592
    36  H   10.805740   9.671963   9.671973  10.954260  11.246500
    37  H   11.443514  10.401138  10.623287  11.970382  12.416971
    38  H   11.045152   9.908242   9.864209  11.117026  11.370206
    39  H   12.501629  11.376218  11.377619  12.651690  12.910673
    40  H   11.669521  10.622555  10.804205  12.126482  12.539315
    41  H    7.047939   6.145673   6.730630   8.134481   8.915842
    42  H    2.614130   2.174062   3.479534   4.660846   5.886742
                    6          7          8          9         10
     6  C    0.000000
     7  C    1.385514   0.000000
     8  C    2.425946   1.406899   0.000000
     9  C    3.767740   2.498556   1.460630   0.000000
    10  N    4.253737   2.868838   2.418459   1.317028   0.000000
    11  C    5.609359   4.224631   3.657862   2.303723   1.355822
    12  C    6.477891   5.113854   4.835947   3.610477   2.417510
    13  C    7.825646   6.452522   6.062882   4.733523   3.669355
    14  C    8.465469   7.081074   6.420917   4.981732   4.212381
    15  N    9.823063   8.438672   7.760040   6.312183   5.569953
    16  C   10.673313   9.306689   8.455766   6.996753   6.479175
    17  C   11.142144   9.801171   8.880676   7.448085   7.045944
    18  C   10.690052   9.309566   8.796546   7.388246   6.473829
    19  C   11.170153   9.807749   9.380535   8.012622   7.041869
    20  C    7.816355   6.461770   5.577314   4.118300   3.691441
    21  C    6.454415   5.110511   4.203379   2.744040   2.422846
    22  O    6.136336   4.911650   3.727183   2.416440   2.792601
    23  C    4.904525   3.782555   2.479205   1.443512   2.412668
    24  C    5.117468   4.279626   2.872805   2.475815   3.668701
    25  H    3.396978   3.871823   3.410840   4.632397   5.800112
    26  H    2.159681   3.398369   3.894059   5.354645   6.143911
    27  H    1.084117   2.140797   3.405680   4.637469   4.902227
    28  H    2.143444   1.081938   2.153584   2.709936   2.546035
    29  H    6.215181   4.920633   4.949082   3.955072   2.644294
    30  H    8.535499   7.190096   6.946494   5.682738   4.528505
    31  H   10.287572   8.947204   8.007725   6.570144   6.200519
    32  H   11.590081  10.218412   9.408078   7.951417   7.378397
    33  H   10.382860   9.071073   8.109357   6.712916   6.411564
    34  H   11.897541  10.577503   9.573465   8.158602   7.874215
    35  H   11.690418  10.341871   9.511829   8.086040   7.569001
    36  H   10.314309   8.951949   8.560112   7.206715   6.191234
    37  H   11.600544  10.219193   9.647549   8.222065   7.372992
    38  H   10.418045   9.079426   8.739306   7.430383   6.406910
    39  H   11.938214  10.589023  10.250397   8.910218   7.870567
    40  H   11.705504  10.343102   9.815126   8.425447   7.564780
    41  H    8.486951   7.173168   6.147019   4.723398   4.535536
    42  H    6.175736   5.362916   3.956089   3.451397   4.538231
                   11         12         13         14         15
    11  C    0.000000
    12  C    1.414492   0.000000
    13  C    2.429822   1.370594   0.000000
    14  C    2.856586   2.446979   1.435513   0.000000
    15  N    4.214143   3.683639   2.433266   1.357615   0.000000
    16  C    5.156107   4.921428   3.797034   2.476023   1.471068
    17  C    5.778825   5.670938   4.635676   3.333725   2.512548
    18  C    5.148939   4.262724   2.892775   2.480802   1.471991
    19  C    5.773199   4.789729   3.503105   3.344315   2.512633
    20  C    2.456510   2.807363   2.442395   1.420763   2.421912
    21  C    1.415338   2.407223   2.764902   2.416087   3.662576
    22  O    2.399835   3.665344   4.138815   3.659599   4.775902
    23  C    2.736074   4.148944   4.965244   4.787894   6.004175
    24  C    4.100540   5.512811   6.287836   5.980025   7.112583
    25  H    6.936095   8.206037   9.365859   9.511913  10.790319
    26  H    7.471830   8.484695   9.799306  10.290565  11.638326
    27  H    6.242565   6.936194   8.305092   9.083499  10.435526
    28  H    3.839380   4.471186   5.839817   6.649315   7.994669
    29  H    2.151222   1.083919   2.133178   3.430874   4.563539
    30  H    3.397153   2.112929   1.079790   2.185036   2.686701
    31  H    4.946553   4.954852   4.022172   2.639049   2.100620
    32  H    6.043839   5.669978   4.449756   3.282722   2.068554
    33  H    5.227669   5.307732   4.472038   3.200402   2.815182
    34  H    6.640553   6.641472   5.635909   4.276487   3.440106
    35  H    6.286462   5.985013   4.859571   3.750846   2.783837
    36  H    4.933837   3.884284   2.590747   2.643798   2.101776
    37  H    6.037006   5.231901   3.876266   3.282821   2.068396
    38  H    5.221320   4.181474   3.051941   3.214845   2.815981
    39  H    6.634464   5.529251   4.267880   4.288092   3.440638
    40  H    6.282050   5.468439   4.208645   3.757464   2.781811
    41  H    3.414053   3.886378   3.442172   2.193458   2.709515
    42  H    4.729360   6.105713   6.694974   6.159327   7.154504
                   16         17         18         19         20
    16  C    0.000000
    17  C    1.528649   0.000000
    18  C    2.488123   3.342774   0.000000
    19  C    3.337224   4.515802   1.528246   0.000000
    20  C    2.880146   3.482477   3.787531   4.630061   0.000000
    21  C    4.253368   4.778576   4.895512   5.646736   1.374291
    22  O    5.057927   5.397270   6.114273   6.880030   2.354084
    23  C    6.398326   6.731000   7.266715   7.978981   3.610293
    24  C    7.311254   7.520475   8.445557   9.177242   4.690728
    25  H   11.231805  11.491021  11.966482  12.589358   8.432684
    26  H   12.346360  12.727814  12.615170  13.133147   9.468577
    27  H   11.379960  11.888584  11.194840  11.617104   8.562886
    28  H    8.994567   9.557292   8.729887   9.171907   6.236547
    29  H    5.886551   6.647827   4.895593   5.276212   3.891204
    30  H    4.152267   5.028449   2.550986   2.965934   3.426977
    31  H    1.090803   2.169226   3.336696   3.943046   2.583552
    32  H    1.091691   2.158196   2.510600   2.990987   3.866901
    33  H    2.180571   1.092678   3.853740   5.142499   3.029682
    34  H    2.156526   1.093700   4.240595   5.247083   4.246255
    35  H    2.174681   1.093241   3.146400   4.429469   4.189660
    36  H    3.338430   3.952396   1.090131   2.168677   4.014065
    37  H    2.511950   2.997950   1.091752   2.158191   4.436609
    38  H    3.849247   5.142544   2.179105   1.092766   4.471509
    39  H    4.234842   5.248091   2.156581   1.093730   5.630963
    40  H    3.137298   4.425208   2.175015   1.093269   4.850339
    41  H    2.573890   2.968798   4.175493   5.053606   1.080013
    42  H    7.132926   7.237274   8.559461   9.327910   4.776874
                   21         22         23         24         25
    21  C    0.000000
    22  O    1.373956   0.000000
    23  C    2.372229   1.366257   0.000000
    24  C    3.601609   2.337461   1.364618   0.000000
    25  H    7.127832   6.178933   4.835711   4.101787   0.000000
    26  H    8.095574   7.491252   6.143189   5.881471   2.477927
    27  H    7.227227   7.045940   5.872823   6.175013   4.293495
    28  H    4.956289   5.054047   4.137779   4.907288   4.953759
    29  H    3.389471   4.542715   4.790568   6.141761   8.359500
    30  H    3.844525   5.218466   6.016529   7.350360  10.302497
    31  H    3.884325   4.497816   5.844121   6.660158  10.631265
    32  H    5.223326   6.056098   7.388276   8.302068  12.212934
    33  H    4.171654   4.661577   5.949666   6.690161  10.623945
    34  H    5.520927   5.955553   7.300190   7.946470  11.997615
    35  H    5.454273   6.197281   7.491240   8.348042  12.228132
    36  H    4.924611   6.214743   7.254552   8.495441  11.812276
    37  H    5.645513   6.774306   7.989444   9.101972  12.743730
    38  H    5.283702   6.548589   7.532637   8.770635  11.984532
    39  H    6.617016   7.885993   8.956713  10.183336  13.517363
    40  H    5.962305   7.080020   8.244130   9.358412  12.908878
    41  H    2.113126   2.543412   3.907554   4.744100   8.714288
    42  H    3.931655   2.559808   2.126709   1.083290   4.805658
                   26         27         28         29         30
    26  H    0.000000
    27  H    2.487209   0.000000
    28  H    4.292518   2.465326   0.000000
    29  H    8.316545   6.513636   4.099133   0.000000
    30  H   10.577019   8.913523   6.467599   2.434790   0.000000
    31  H   11.865090  11.048739   8.727927   5.975270   4.564672
    32  H   13.295647  12.267421   9.861499   6.564167   4.597850
    33  H   11.903217  11.158332   8.892268   6.307697   5.033100
    34  H   13.388106  12.691759  10.404610   7.647070   6.050533
    35  H   13.348158  12.380403  10.019465   6.870552   5.056475
    36  H   12.296569  10.750069   8.299475   4.360901   2.022666
    37  H   13.489142  12.132210   9.673090   5.889478   3.566868
    38  H   12.405020  10.821056   8.407164   4.561514   2.487635
    39  H   13.951469  12.320360   9.886442   5.871896   3.524570
    40  H   13.598813  12.210031   9.779993   6.056164   3.864534
    41  H    9.990425   9.305230   7.067761   4.970027   4.352724
    42  H    6.799265   7.240912   5.974242   6.852458   7.774039
                   31         32         33         34         35
    31  H    0.000000
    32  H    1.746452   0.000000
    33  H    2.537381   3.075677   0.000000
    34  H    2.489545   2.478102   1.771089   0.000000
    35  H    3.079157   2.511824   1.773339   1.770182   0.000000
    36  H    4.168888   3.538356   4.253231   4.952765   3.623739
    37  H    3.539130   2.314734   3.696434   3.789393   2.524189
    38  H    4.244388   3.691639   5.618203   5.921983   5.191807
    39  H    4.943325   3.780243   5.923574   5.963935   4.966253
    40  H    3.609406   2.514959   5.187262   4.960704   4.467380
    41  H    2.050748   3.593155   2.479313   3.522830   3.869076
    42  H    6.413889   8.109159   6.409350   7.525280   8.128957
                   36         37         38         39         40
    36  H    0.000000
    37  H    1.745739   0.000000
    38  H    2.534292   3.074873   0.000000
    39  H    2.491208   2.477094   1.771721   0.000000
    40  H    3.079039   2.514316   1.773288   1.769978   0.000000
    41  H    4.585329   4.618716   5.059404   6.075587   5.079214
    42  H    8.716519   9.121608   9.019157  10.362764   9.406709
                   41         42
    41  H    0.000000
    42  H    4.581934   0.000000
 Stoichiometry    C20H18N2O2
 Framework group  C1[X(C20H18N2O2)]
 Deg. of freedom   120
 Full point group                 C1      NOp   1
 RotChk:  IX=2 Diff= 6.63D-16
 Largest Abelian subgroup         C1      NOp   1
 Largest concise Abelian subgroup C1      NOp   1
                         Standard orientation:                         
 ---------------------------------------------------------------------
 Center     Atomic      Atomic             Coordinates (Angstroms)
 Number     Number       Type             X           Y           Z
 ---------------------------------------------------------------------
      1          8           0       -4.570034    2.745871   -0.284294
      2          6           0       -3.733858    1.813291   -0.194220
      3          6           0       -4.173724    0.403184   -0.057420
      4          6           0       -5.544924    0.103227   -0.030042
      5          6           0       -5.981889   -1.205430    0.099510
      6          6           0       -5.046347   -2.243909    0.205194
      7          6           0       -3.688824   -1.967961    0.180045
      8          6           0       -3.228635   -0.644952    0.048756
      9          6           0       -1.800583   -0.339303    0.022569
     10          7           0       -0.900520   -1.295003    0.127869
     11          6           0        0.414671   -0.966608    0.101799
     12          6           0        1.424835   -1.949576    0.220669
     13          6           0        2.754109   -1.616621    0.194254
     14          6           0        3.180385   -0.254312    0.042261
     15          7           0        4.498305    0.069970    0.009928
     16          6           0        4.960177    1.439992   -0.261652
     17          6           0        5.094697    2.304466    0.991885
     18          6           0        5.561384   -0.920433    0.245986
     19          6           0        6.038760   -1.624877   -1.023426
     20          6           0        2.172531    0.740035   -0.076362
     21          6           0        0.848657    0.372599   -0.044370
     22          8           0       -0.095962    1.364690   -0.150223
     23          6           0       -1.424433    1.047443   -0.115907
     24          6           0       -2.323890    2.068479   -0.219080
     25          1           0       -6.258291    0.913619   -0.112102
     26          1           0       -7.043043   -1.425328    0.119442
     27          1           0       -5.384164   -3.268976    0.307307
     28          1           0       -2.969821   -2.772244    0.262223
     29          1           0        1.123253   -2.985169    0.327798
     30          1           0        3.487362   -2.405457    0.271883
     31          1           0        4.290332    1.909104   -0.983520
     32          1           0        5.929798    1.352094   -0.755513
     33          1           0        4.132896    2.434166    1.493943
     34          1           0        5.471835    3.293150    0.715391
     35          1           0        5.797641    1.859296    1.701017
     36          1           0        5.221036   -1.645904    0.985068
     37          1           0        6.392961   -0.382571    0.705449
     38          1           0        5.233042   -2.198375   -1.488244
     39          1           0        6.851253   -2.314066   -0.776202
     40          1           0        6.416022   -0.904361   -1.754020
     41          1           0        2.411719    1.789066   -0.169904
     42          1           0       -1.978957    3.090303   -0.321134
 ---------------------------------------------------------------------
 Rotational constants (GHZ):           0.6532937           0.1062093           0.0929180
 Leave Link  202 at Wed Feb 28 09:57:07 2024, MaxMem=  1342177280 cpu:               0.4 elap:               0.1
 (Enter /apps/x86-64/apps/gaussian_g16c01_avx2/g16/l301.exe)
 Standard basis: Aug-CC-pVDZ (5D, 7F)
 Ernie: Thresh=  0.10000D-02 Tol=  0.10000D-05 Strict=F.
 Ernie:  48 primitive shells out of 726 were deleted.
 There are   762 symmetry adapted cartesian basis functions of A   symmetry.
 There are   714 symmetry adapted basis functions of A   symmetry.
   714 basis functions,  1230 primitive gaussians,   762 cartesian basis functions
    84 alpha electrons       84 beta electrons
       nuclear repulsion energy      1892.6543825620 Hartrees.
 IExCor=20419 DFT=T Ex+Corr=CAM-B3LYP ExCW=0 ScaHFX=  1.000000
 ScaDFX=  1.000000  1.000000  1.000000  0.810000 ScalE2=  1.000000  1.000000
 IRadAn=      5 IRanWt=     -1 IRanGd=            0 ICorTp=0 IEmpDi=  4
 HFx  wShort=  0.000000 wLong=  0.330000 cFull=  0.190000 cShort=  0.000000 cLong=  0.460000
 DFx  wShort=  0.000000 wLong=  0.330000 cFull=  0.190000 cShort=  0.000000 cLong=  0.460000
 NAtoms=   42 NActive=   42 NUniq=   42 SFac= 1.00D+00 NAtFMM=   60 NAOKFM=F Big=F
 Integral buffers will be    131072 words long.
 Raffenetti 2 integral format.
 Two-electron integral symmetry is turned on.
 Force PCM accuracy= 1.00D-12.
 Using the following non-standard input for PCM:
 NonEq=write
 --- end of non-standard input.
 Force PCM accuracy= 1.00D-12.
 ------------------------------------------------------------------------------
 Polarizable Continuum Model (PCM)
 =================================
 Model                : PCM.
 Atomic radii         : UFF (Universal Force Field).
 Polarization charges : Total charges.
 Charge compensation  : None.
 Solution method      : On-the-fly selection.
 Cavity type          : Scaled VdW (van der Waals Surface) (Alpha=1.100).
 Cavity algorithm     : GePol (No added spheres)
                        Default sphere list used, NSphG=   42.
                        Lebedev-Laikov grids with approx.  5.0 points / Ang**2.
                        Smoothing algorithm: York/Karplus (Gamma=1.0000).
                        Polarization charges: spherical gaussians, with
                                              point-specific exponents (IZeta= 3).
                        Self-potential: point-specific (ISelfS= 7).
                        Self-field    : sphere-specific E.n sum rule (ISelfD= 2).
 Solvent              : Water, Eps=  78.355300 Eps(inf)=   1.777849
 ------------------------------------------------------------------------------
 GePol: Number of generator spheres                  =      42
 GePol: Total number of spheres                      =      42
 GePol: Number of exposed spheres                    =      42 (100.00%)
 GePol: Number of points                             =    3074
 GePol: Average weight of points                     =       0.13
 GePol: Minimum weight of points                     =   0.27D-11
 GePol: Maximum weight of points                     =    0.20577
 GePol: Number of points with low weight             =     203
 GePol: Fraction of low-weight points (<1% of avg)   =       6.60%
 GePol: Cavity surface area                          =    392.446 Ang**2
 GePol: Cavity volume                                =    436.729 Ang**3
 Leave Link  301 at Wed Feb 28 09:57:07 2024, MaxMem=  1342177280 cpu:               0.6 elap:               0.1
 (Enter /apps/x86-64/apps/gaussian_g16c01_avx2/g16/l302.exe)
 NPDir=0 NMtPBC=     1 NCelOv=     1 NCel=       1 NClECP=     1 NCelD=      1
         NCelK=      1 NCelE2=     1 NClLst=     1 CellRange=     0.0.
 One-electron integrals computed using PRISM.
 One-electron integral symmetry used in STVInt
 NBasis=   714 RedAO= T EigKep=  1.06D-06  NBF=   714
 NBsUse=   709 1.00D-06 EigRej=  9.26D-07 NBFU=   709
 Precomputing XC quadrature grid using
 IXCGrd= 4 IRadAn=           5 IRanWt=          -1 IRanGd=           0 AccXCQ= 1.00D-12.
 Generated NRdTot=       0 NPtTot=           0 NUsed=           0 NTot=          32
 NSgBfM=   755   755   755   755   755 MxSgAt=    42 MxSgA2=    42.
 Leave Link  302 at Wed Feb 28 09:57:08 2024, MaxMem=  1342177280 cpu:              11.8 elap:               1.2
 (Enter /apps/x86-64/apps/gaussian_g16c01_avx2/g16/l303.exe)
 DipDrv:  MaxL=1.
 Leave Link  303 at Wed Feb 28 09:57:09 2024, MaxMem=  1342177280 cpu:               1.3 elap:               0.2
 (Enter /apps/x86-64/apps/gaussian_g16c01_avx2/g16/l401.exe)
 Initial guess from the checkpoint file:  "wat-2.chk"
 B after Tr=    -0.000000    0.000000   -0.000000
         Rot=    1.000000    0.000000    0.000000    0.000000 Ang=   0.00 deg.
 Guess basis will be translated and rotated to current coordinates.
 JPrj=2 DoOrth=T DoCkMO=T.
 Leave Link  401 at Wed Feb 28 09:57:10 2024, MaxMem=  1342177280 cpu:               8.2 elap:               0.9
 (Enter /apps/x86-64/apps/gaussian_g16c01_avx2/g16/l502.exe)
 Integral symmetry usage will be decided dynamically.
 Closed shell SCF:
 Using DIIS extrapolation, IDIIS=  1040.
 NGot=  1342177280 LenX=  1341000346 LenY=  1340418940
 Requested convergence on RMS density matrix=1.00D-08 within 128 cycles.
 Requested convergence on MAX density matrix=1.00D-06.
 Requested convergence on             energy=1.00D-06.
 No special actions if energy rises.
 Fock matrices will be formed incrementally for  20 cycles.

 Cycle   1  Pass 1  IDiag  1:
 FoFJK:  IHMeth= 1 ICntrl=       0 DoSepK=T KAlg= 0 I1Cent=           0 FoldK=F
 IRaf=         1 NMat=       1 IRICut=       1 DoRegI=T DoRafI=F ISym2E= 0 IDoP0=0 IntGTp=1.
 FoFCou: FMM=F IPFlag=           0 FMFlag=      100000 FMFlg1=           0
         NFxFlg=           0 DoJE=T BraDBF=F KetDBF=F FulRan=T
         wScrn=  0.000000 ICntrl=       500 IOpCl=  0 I1Cent=           0 NGrid=           0
         NMat0=    1 NMatS0=      1 NMatT0=    0 NMatD0=    1 NMtDS0=    0 NMtDT0=    0
 Symmetry not used in FoFCou.
 Inv3:  Mode=1 IEnd=    28348428.
 Iteration    1 A*A^-1 deviation from unit magnitude is 3.55D-15 for   2651.
 Iteration    1 A*A^-1 deviation from orthogonality  is 2.14D-15 for   2621   2544.
 Iteration    1 A^-1*A deviation from unit magnitude is 3.55D-15 for   2651.
 Iteration    1 A^-1*A deviation from orthogonality  is 8.33D-15 for   2525   2499.
 E= -1032.48733304164    
 DIIS: error= 3.62D-03 at cycle   1 NSaved=   1.
 NSaved= 1 IEnMin= 1 EnMin= -1032.48733304164     IErMin= 1 ErrMin= 3.62D-03
 ErrMax= 3.62D-03  0.00D+00 EMaxC= 1.00D-01 BMatC= 2.53D-02 BMatP= 2.53D-02
 IDIUse=3 WtCom= 9.64D-01 WtEn= 3.62D-02
 Coeff-Com:  0.100D+01
 Coeff-En:   0.100D+01
 Coeff:      0.100D+01
 Gap=     0.168 Goal=   None    Shift=    0.000
 GapD=    0.168 DampG=1.000 DampE=1.000 DampFc=1.0000 IDamp=-1.
 RMSDP=6.68D-02 MaxDP=4.68D+00              OVMax= 4.87D-02

 Cycle   2  Pass 1  IDiag  1:
 RMSU=  4.26D-02    CP:  2.14D+00
 E= -1032.50695318736     Delta-E=       -0.019620145710 Rises=F Damp=F
 DIIS: error= 6.89D-04 at cycle   2 NSaved=   2.
 NSaved= 2 IEnMin= 2 EnMin= -1032.50695318736     IErMin= 2 ErrMin= 6.89D-04
 ErrMax= 6.89D-04  0.00D+00 EMaxC= 1.00D-01 BMatC= 9.53D-04 BMatP= 2.53D-02
 IDIUse=3 WtCom= 9.93D-01 WtEn= 6.89D-03
 Coeff-Com:  0.491D-02 0.995D+00
 Coeff-En:   0.000D+00 0.100D+01
 Coeff:      0.488D-02 0.995D+00
 Gap=     0.167 Goal=   None    Shift=    0.000
 RMSDP=5.29D-03 MaxDP=4.36D-01 DE=-1.96D-02 OVMax= 1.25D-02

 Cycle   3  Pass 1  IDiag  1:
 RMSU=  1.93D-03    CP:  2.22D+00  1.08D+00
 E= -1032.50684907915     Delta-E=        0.000104108201 Rises=F Damp=F
 DIIS: error= 1.13D-03 at cycle   3 NSaved=   3.
 NSaved= 3 IEnMin= 2 EnMin= -1032.50695318736     IErMin= 2 ErrMin= 6.89D-04
 ErrMax= 1.13D-03  0.00D+00 EMaxC= 1.00D-01 BMatC= 1.52D-03 BMatP= 9.53D-04
 IDIUse=3 WtCom= 2.29D-01 WtEn= 7.71D-01
 Coeff-Com: -0.271D-01 0.579D+00 0.448D+00
 Coeff-En:   0.000D+00 0.528D+00 0.472D+00
 Coeff:     -0.621D-02 0.539D+00 0.467D+00
 Gap=     0.169 Goal=   None    Shift=    0.000
 RMSDP=4.98D-04 MaxDP=3.25D-02 DE= 1.04D-04 OVMax= 1.22D-02

 Cycle   4  Pass 1  IDiag  1:
 RMSU=  3.01D-04    CP:  2.22D+00  1.09D+00  9.27D-01
 E= -1032.50804904643     Delta-E=       -0.001199967276 Rises=F Damp=F
 DIIS: error= 1.97D-04 at cycle   4 NSaved=   4.
 NSaved= 4 IEnMin= 4 EnMin= -1032.50804904643     IErMin= 4 ErrMin= 1.97D-04
 ErrMax= 1.97D-04  0.00D+00 EMaxC= 1.00D-01 BMatC= 7.33D-05 BMatP= 9.53D-04
 IDIUse=3 WtCom= 9.98D-01 WtEn= 1.97D-03
 Coeff-Com: -0.724D-02 0.708D-01 0.198D+00 0.738D+00
 Coeff-En:   0.000D+00 0.000D+00 0.000D+00 0.100D+01
 Coeff:     -0.723D-02 0.707D-01 0.198D+00 0.739D+00
 Gap=     0.170 Goal=   None    Shift=    0.000
 RMSDP=2.32D-04 MaxDP=1.91D-02 DE=-1.20D-03 OVMax= 6.04D-03

 Cycle   5  Pass 1  IDiag  1:
 RMSU=  1.14D-04    CP:  2.22D+00  1.09D+00  1.01D+00  9.01D-01
 E= -1032.50813212971     Delta-E=       -0.000083083282 Rises=F Damp=F
 DIIS: error= 7.46D-05 at cycle   5 NSaved=   5.
 NSaved= 5 IEnMin= 5 EnMin= -1032.50813212971     IErMin= 5 ErrMin= 7.46D-05
 ErrMax= 7.46D-05  0.00D+00 EMaxC= 1.00D-01 BMatC= 9.98D-06 BMatP= 7.33D-05
 IDIUse=1 WtCom= 1.00D+00 WtEn= 0.00D+00
 Coeff-Com:  0.138D-02-0.738D-01 0.308D-01 0.367D+00 0.675D+00
 Coeff:      0.138D-02-0.738D-01 0.308D-01 0.367D+00 0.675D+00
 Gap=     0.170 Goal=   None    Shift=    0.000
 RMSDP=7.92D-05 MaxDP=5.57D-03 DE=-8.31D-05 OVMax= 3.27D-03

 Cycle   6  Pass 1  IDiag  1:
 RMSU=  5.96D-05    CP:  2.22D+00  1.09D+00  1.03D+00  8.65D-01  1.03D+00
 E= -1032.50815338742     Delta-E=       -0.000021257703 Rises=F Damp=F
 DIIS: error= 2.88D-05 at cycle   6 NSaved=   6.
 NSaved= 6 IEnMin= 6 EnMin= -1032.50815338742     IErMin= 6 ErrMin= 2.88D-05
 ErrMax= 2.88D-05  0.00D+00 EMaxC= 1.00D-01 BMatC= 1.24D-06 BMatP= 9.98D-06
 IDIUse=1 WtCom= 1.00D+00 WtEn= 0.00D+00
 Coeff-Com:  0.207D-02-0.413D-01-0.200D-01-0.328D-01 0.136D+00 0.956D+00
 Coeff:      0.207D-02-0.413D-01-0.200D-01-0.328D-01 0.136D+00 0.956D+00
 Gap=     0.170 Goal=   None    Shift=    0.000
 RMSDP=5.57D-05 MaxDP=3.93D-03 DE=-2.13D-05 OVMax= 3.18D-03

 Cycle   7  Pass 1  IDiag  1:
 RMSU=  2.58D-05    CP:  2.22D+00  1.09D+00  1.04D+00  8.20D-01  1.17D+00
                    CP:  1.32D+00
 E= -1032.50816000358     Delta-E=       -0.000006616163 Rises=F Damp=F
 DIIS: error= 1.68D-05 at cycle   7 NSaved=   7.
 NSaved= 7 IEnMin= 7 EnMin= -1032.50816000358     IErMin= 7 ErrMin= 1.68D-05
 ErrMax= 1.68D-05  0.00D+00 EMaxC= 1.00D-01 BMatC= 4.94D-07 BMatP= 1.24D-06
 IDIUse=1 WtCom= 1.00D+00 WtEn= 0.00D+00
 Coeff-Com:  0.590D-03-0.206D-02-0.110D-01-0.924D-01-0.117D+00 0.447D+00
 Coeff-Com:  0.775D+00
 Coeff:      0.590D-03-0.206D-02-0.110D-01-0.924D-01-0.117D+00 0.447D+00
 Coeff:      0.775D+00
 Gap=     0.170 Goal=   None    Shift=    0.000
 RMSDP=2.36D-05 MaxDP=1.40D-03 DE=-6.62D-06 OVMax= 1.56D-03

 Cycle   8  Pass 1  IDiag  1:
 RMSU=  1.12D-05    CP:  2.22D+00  1.09D+00  1.05D+00  8.01D-01  1.23D+00
                    CP:  1.53D+00  1.26D+00
 E= -1032.50816167900     Delta-E=       -0.000001675426 Rises=F Damp=F
 DIIS: error= 5.42D-06 at cycle   8 NSaved=   8.
 NSaved= 8 IEnMin= 8 EnMin= -1032.50816167900     IErMin= 8 ErrMin= 5.42D-06
 ErrMax= 5.42D-06  0.00D+00 EMaxC= 1.00D-01 BMatC= 6.57D-08 BMatP= 4.94D-07
 IDIUse=1 WtCom= 1.00D+00 WtEn= 0.00D+00
 Coeff-Com: -0.290D-03 0.965D-02 0.280D-02-0.233D-01-0.798D-01-0.670D-01
 Coeff-Com:  0.243D+00 0.915D+00
 Coeff:     -0.290D-03 0.965D-02 0.280D-02-0.233D-01-0.798D-01-0.670D-01
 Coeff:      0.243D+00 0.915D+00
 Gap=     0.170 Goal=   None    Shift=    0.000
 RMSDP=1.24D-05 MaxDP=7.03D-04 DE=-1.68D-06 OVMax= 8.36D-04

 Cycle   9  Pass 1  IDiag  1:
 RMSU=  6.30D-06    CP:  2.22D+00  1.09D+00  1.05D+00  7.90D-01  1.25D+00
                    CP:  1.62D+00  1.44D+00  1.31D+00
 E= -1032.50816201474     Delta-E=       -0.000000335734 Rises=F Damp=F
 DIIS: error= 2.50D-06 at cycle   9 NSaved=   9.
 NSaved= 9 IEnMin= 9 EnMin= -1032.50816201474     IErMin= 9 ErrMin= 2.50D-06
 ErrMax= 2.50D-06  0.00D+00 EMaxC= 1.00D-01 BMatC= 1.60D-08 BMatP= 6.57D-08
 IDIUse=1 WtCom= 1.00D+00 WtEn= 0.00D+00
 Coeff-Com: -0.199D-03 0.405D-02 0.255D-02 0.330D-02-0.136D-01-0.902D-01
 Coeff-Com: -0.383D-01 0.390D+00 0.742D+00
 Coeff:     -0.199D-03 0.405D-02 0.255D-02 0.330D-02-0.136D-01-0.902D-01
 Coeff:     -0.383D-01 0.390D+00 0.742D+00
 Gap=     0.170 Goal=   None    Shift=    0.000
 RMSDP=3.87D-06 MaxDP=2.40D-04 DE=-3.36D-07 OVMax= 2.57D-04

 Cycle  10  Pass 1  IDiag  1:
 RMSU=  2.13D-06    CP:  2.22D+00  1.09D+00  1.05D+00  7.90D-01  1.27D+00
                    CP:  1.63D+00  1.52D+00  1.40D+00  1.12D+00
 E= -1032.50816206423     Delta-E=       -0.000000049488 Rises=F Damp=F
 DIIS: error= 1.11D-06 at cycle  10 NSaved=  10.
 NSaved=10 IEnMin=10 EnMin= -1032.50816206423     IErMin=10 ErrMin= 1.11D-06
 ErrMax= 1.11D-06  0.00D+00 EMaxC= 1.00D-01 BMatC= 3.07D-09 BMatP= 1.60D-08
 IDIUse=1 WtCom= 1.00D+00 WtEn= 0.00D+00
 Coeff-Com:  0.221D-05-0.120D-02 0.234D-03 0.849D-02 0.202D-01-0.134D-01
 Coeff-Com: -0.962D-01-0.112D+00 0.278D+00 0.916D+00
 Coeff:      0.221D-05-0.120D-02 0.234D-03 0.849D-02 0.202D-01-0.134D-01
 Coeff:     -0.962D-01-0.112D+00 0.278D+00 0.916D+00
 Gap=     0.170 Goal=   None    Shift=    0.000
 RMSDP=2.16D-06 MaxDP=1.41D-04 DE=-4.95D-08 OVMax= 1.26D-04

 Cycle  11  Pass 1  IDiag  1:
 RMSU=  1.11D-06    CP:  2.22D+00  1.09D+00  1.05D+00  7.89D-01  1.27D+00
                    CP:  1.64D+00  1.53D+00  1.48D+00  1.30D+00  1.13D+00
 E= -1032.50816207383     Delta-E=       -0.000000009605 Rises=F Damp=F
 DIIS: error= 3.97D-07 at cycle  11 NSaved=  11.
 NSaved=11 IEnMin=11 EnMin= -1032.50816207383     IErMin=11 ErrMin= 3.97D-07
 ErrMax= 3.97D-07  0.00D+00 EMaxC= 1.00D-01 BMatC= 2.59D-10 BMatP= 3.07D-09
 IDIUse=1 WtCom= 1.00D+00 WtEn= 0.00D+00
 Coeff-Com:  0.237D-04-0.853D-03-0.203D-03 0.250D-02 0.863D-02 0.575D-02
 Coeff-Com: -0.310D-01-0.732D-01 0.339D-01 0.326D+00 0.728D+00
 Coeff:      0.237D-04-0.853D-03-0.203D-03 0.250D-02 0.863D-02 0.575D-02
 Coeff:     -0.310D-01-0.732D-01 0.339D-01 0.326D+00 0.728D+00
 Gap=     0.170 Goal=   None    Shift=    0.000
 RMSDP=4.58D-07 MaxDP=7.49D-05 DE=-9.60D-09 OVMax= 1.56D-05

 Cycle  12  Pass 1  IDiag  1:
 RMSU=  3.16D-07    CP:  2.22D+00  1.09D+00  1.05D+00  7.88D-01  1.27D+00
                    CP:  1.64D+00  1.54D+00  1.48D+00  1.33D+00  1.16D+00
                    CP:  1.09D+00
 E= -1032.50816207418     Delta-E=       -0.000000000345 Rises=F Damp=F
 DIIS: error= 1.60D-07 at cycle  12 NSaved=  12.
 NSaved=12 IEnMin=12 EnMin= -1032.50816207418     IErMin=12 ErrMin= 1.60D-07
 ErrMax= 1.60D-07  0.00D+00 EMaxC= 1.00D-01 BMatC= 7.48D-11 BMatP= 2.59D-10
 IDIUse=1 WtCom= 1.00D+00 WtEn= 0.00D+00
 Coeff-Com:  0.967D-05-0.214D-03-0.155D-03-0.181D-03 0.996D-03 0.458D-02
 Coeff-Com: -0.150D-02-0.196D-01-0.317D-01 0.116D-01 0.363D+00 0.674D+00
 Coeff:      0.967D-05-0.214D-03-0.155D-03-0.181D-03 0.996D-03 0.458D-02
 Coeff:     -0.150D-02-0.196D-01-0.317D-01 0.116D-01 0.363D+00 0.674D+00
 Gap=     0.170 Goal=   None    Shift=    0.000
 RMSDP=2.47D-07 MaxDP=1.72D-05 DE=-3.45D-10 OVMax= 1.01D-05

 Cycle  13  Pass 1  IDiag  1:
 RMSU=  1.23D-07    CP:  2.22D+00  1.09D+00  1.05D+00  7.88D-01  1.27D+00
                    CP:  1.64D+00  1.54D+00  1.49D+00  1.34D+00  1.17D+00
                    CP:  1.15D+00  9.67D-01
 E= -1032.50816207435     Delta-E=       -0.000000000175 Rises=F Damp=F
 DIIS: error= 6.39D-08 at cycle  13 NSaved=  13.
 NSaved=13 IEnMin=13 EnMin= -1032.50816207435     IErMin=13 ErrMin= 6.39D-08
 ErrMax= 6.39D-08  0.00D+00 EMaxC= 1.00D-01 BMatC= 5.79D-12 BMatP= 7.48D-11
 IDIUse=1 WtCom= 1.00D+00 WtEn= 0.00D+00
 Coeff-Com:  0.102D-05 0.236D-04-0.305D-04-0.355D-03-0.644D-03 0.117D-02
 Coeff-Com:  0.313D-02 0.314D-02-0.146D-01-0.319D-01 0.473D-01 0.248D+00
 Coeff-Com:  0.744D+00
 Coeff:      0.102D-05 0.236D-04-0.305D-04-0.355D-03-0.644D-03 0.117D-02
 Coeff:      0.313D-02 0.314D-02-0.146D-01-0.319D-01 0.473D-01 0.248D+00
 Coeff:      0.744D+00
 Gap=     0.170 Goal=   None    Shift=    0.000
 RMSDP=7.90D-08 MaxDP=6.26D-06 DE=-1.75D-10 OVMax= 1.41D-06

 Cycle  14  Pass 1  IDiag  1:
 RMSU=  4.22D-08    CP:  2.22D+00  1.09D+00  1.05D+00  7.88D-01  1.27D+00
                    CP:  1.64D+00  1.54D+00  1.49D+00  1.34D+00  1.17D+00
                    CP:  1.16D+00  9.73D-01  1.04D+00
 E= -1032.50816207425     Delta-E=        0.000000000098 Rises=F Damp=F
 DIIS: error= 2.50D-08 at cycle  14 NSaved=  14.
 NSaved=14 IEnMin=13 EnMin= -1032.50816207435     IErMin=14 ErrMin= 2.50D-08
 ErrMax= 2.50D-08  0.00D+00 EMaxC= 1.00D-01 BMatC= 1.10D-12 BMatP= 5.79D-12
 IDIUse=1 WtCom= 1.00D+00 WtEn= 0.00D+00
 Coeff-Com: -0.121D-05 0.477D-04 0.921D-05-0.142D-03-0.471D-03-0.204D-03
 Coeff-Com:  0.157D-02 0.458D-02-0.311D-02-0.181D-01-0.383D-01 0.100D-01
 Coeff-Com:  0.321D+00 0.723D+00
 Coeff:     -0.121D-05 0.477D-04 0.921D-05-0.142D-03-0.471D-03-0.204D-03
 Coeff:      0.157D-02 0.458D-02-0.311D-02-0.181D-01-0.383D-01 0.100D-01
 Coeff:      0.321D+00 0.723D+00
 Gap=     0.170 Goal=   None    Shift=    0.000
 RMSDP=2.99D-08 MaxDP=3.66D-06 DE= 9.75D-11 OVMax= 9.47D-07

 Cycle  15  Pass 1  IDiag  1:
 RMSU=  1.79D-08    CP:  2.22D+00  1.09D+00  1.05D+00  7.88D-01  1.27D+00
                    CP:  1.64D+00  1.54D+00  1.49D+00  1.34D+00  1.17D+00
                    CP:  1.17D+00  1.01D+00  1.08D+00  1.03D+00
 E= -1032.50816207433     Delta-E=       -0.000000000075 Rises=F Damp=F
 DIIS: error= 9.58D-09 at cycle  15 NSaved=  15.
 NSaved=15 IEnMin=13 EnMin= -1032.50816207435     IErMin=15 ErrMin= 9.58D-09
 ErrMax= 9.58D-09  0.00D+00 EMaxC= 1.00D-01 BMatC= 9.85D-14 BMatP= 1.10D-12
 IDIUse=1 WtCom= 1.00D+00 WtEn= 0.00D+00
 Coeff-Com: -0.275D-06 0.453D-05 0.514D-05 0.190D-04-0.518D-05-0.140D-03
 Coeff-Com: -0.173D-03 0.594D-03 0.125D-02 0.157D-02-0.123D-01-0.229D-01
 Coeff-Com: -0.417D-01 0.145D+00 0.929D+00
 Coeff:     -0.275D-06 0.453D-05 0.514D-05 0.190D-04-0.518D-05-0.140D-03
 Coeff:     -0.173D-03 0.594D-03 0.125D-02 0.157D-02-0.123D-01-0.229D-01
 Coeff:     -0.417D-01 0.145D+00 0.929D+00
 Gap=     0.170 Goal=   None    Shift=    0.000
 RMSDP=1.32D-08 MaxDP=7.97D-07 DE=-7.55D-11 OVMax= 2.75D-07

 Cycle  16  Pass 1  IDiag  1:
 RMSU=  6.97D-09    CP:  2.22D+00  1.09D+00  1.05D+00  7.88D-01  1.27D+00
                    CP:  1.64D+00  1.54D+00  1.49D+00  1.34D+00  1.17D+00
                    CP:  1.17D+00  1.01D+00  1.09D+00  1.10D+00  1.22D+00
 E= -1032.50816207435     Delta-E=       -0.000000000018 Rises=F Damp=F
 DIIS: error= 5.45D-09 at cycle  16 NSaved=  16.
 NSaved=16 IEnMin=13 EnMin= -1032.50816207435     IErMin=16 ErrMin= 5.45D-09
 ErrMax= 5.45D-09  0.00D+00 EMaxC= 1.00D-01 BMatC= 2.86D-14 BMatP= 9.85D-14
 IDIUse=1 WtCom= 1.00D+00 WtEn= 0.00D+00
 Coeff-Com:  0.739D-07-0.655D-05 0.101D-05 0.355D-04 0.830D-04-0.272D-04
 Coeff-Com: -0.390D-03-0.618D-03 0.962D-03 0.386D-02 0.128D-02-0.116D-01
 Coeff-Com: -0.834D-01-0.690D-01 0.444D+00 0.715D+00
 Coeff:      0.739D-07-0.655D-05 0.101D-05 0.355D-04 0.830D-04-0.272D-04
 Coeff:     -0.390D-03-0.618D-03 0.962D-03 0.386D-02 0.128D-02-0.116D-01
 Coeff:     -0.834D-01-0.690D-01 0.444D+00 0.715D+00
 Gap=     0.170 Goal=   None    Shift=    0.000
 RMSDP=4.96D-09 MaxDP=4.29D-07 DE=-1.82D-11 OVMax= 1.52D-07

 NEqSol: Computing the fast-slow partition of the PCM polarization charges.
 Error on total polarization charges =  0.02375
 SCF Done:  E(RCAM-B3LYP) =  -1032.50816207     A.U. after   16 cycles
            NFock= 16  Conv=0.50D-08     -V/T= 2.0059
 KE= 1.026482225309D+03 PE=-6.185686452315D+03 EE= 2.234041682371D+03
 Leave Link  502 at Wed Feb 28 10:16:10 2024, MaxMem=  1342177280 cpu:           11301.9 elap:            1139.7
 (Enter /apps/x86-64/apps/gaussian_g16c01_avx2/g16/l601.exe)
 Copying SCF densities to generalized density rwf, IOpCl= 0 IROHF=0.

 **********************************************************************

            Population analysis using the SCF Density.

 **********************************************************************

 Orbital symmetries:
       Occupied  (A) (A) (A) (A) (A) (A) (A) (A) (A) (A) (A) (A)
                 (A) (A) (A) (A) (A) (A) (A) (A) (A) (A) (A) (A)
                 (A) (A) (A) (A) (A) (A) (A) (A) (A) (A) (A) (A)
                 (A) (A) (A) (A) (A) (A) (A) (A) (A) (A) (A) (A)
                 (A) (A) (A) (A) (A) (A) (A) (A) (A) (A) (A) (A)
                 (A) (A) (A) (A) (A) (A) (A) (A) (A) (A) (A) (A)
                 (A) (A) (A) (A) (A) (A) (A) (A) (A) (A) (A) (A)
       Virtual   (A) (A) (A) (A) (A) (A) (A) (A) (A) (A) (A) (A)
                 (A) (A) (A) (A) (A) (A) (A) (A) (A) (A) (A) (A)
                 (A) (A) (A) (A) (A) (A) (A) (A) (A) (A) (A) (A)
                 (A) (A) (A) (A) (A) (A) (A) (A) (A) (A) (A) (A)
                 (A) (A) (A) (A) (A) (A) (A) (A) (A) (A) (A) (A)
                 (A) (A) (A) (A) (A) (A) (A) (A) (A) (A) (A) (A)
                 (A) (A) (A) (A) (A) (A) (A) (A) (A) (A) (A) (A)
                 (A) (A) (A) (A) (A) (A) (A) (A) (A) (A) (A) (A)
                 (A) (A) (A) (A) (A) (A) (A) (A) (A) (A) (A) (A)
                 (A) (A) (A) (A) (A) (A) (A) (A) (A) (A) (A) (A)
                 (A) (A) (A) (A) (A) (A) (A) (A) (A) (A) (A) (A)
                 (A) (A) (A) (A) (A) (A) (A) (A) (A) (A) (A) (A)
                 (A) (A) (A) (A) (A) (A) (A) (A) (A) (A) (A) (A)
                 (A) (A) (A) (A) (A) (A) (A) (A) (A) (A) (A) (A)
                 (A) (A) (A) (A) (A) (A) (A) (A) (A) (A) (A) (A)
                 (A) (A) (A) (A) (A) (A) (A) (A) (A) (A) (A) (A)
                 (A) (A) (A) (A) (A) (A) (A) (A) (A) (A) (A) (A)
                 (A) (A) (A) (A) (A) (A) (A) (A) (A) (A) (A) (A)
                 (A) (A) (A) (A) (A) (A) (A) (A) (A) (A) (A) (A)
                 (A) (A) (A) (A) (A) (A) (A) (A) (A) (A) (A) (A)
                 (A) (A) (A) (A) (A) (A) (A) (A) (A) (A) (A) (A)
                 (A) (A) (A) (A) (A) (A) (A) (A) (A) (A) (A) (A)
                 (A) (A) (A) (A) (A) (A) (A) (A) (A) (A) (A) (A)
                 (A) (A) (A) (A) (A) (A) (A) (A) (A) (A) (A) (A)
                 (A) (A) (A) (A) (A) (A) (A) (A) (A) (A) (A) (A)
                 (A) (A) (A) (A) (A) (A) (A) (A) (A) (A) (A) (A)
                 (A) (A) (A) (A) (A) (A) (A) (A) (A) (A) (A) (A)
                 (A) (A) (A) (A) (A) (A) (A) (A) (A) (A) (A) (A)
                 (A) (A) (A) (A) (A) (A) (A) (A) (A) (A) (A) (A)
                 (A) (A) (A) (A) (A) (A) (A) (A) (A) (A) (A) (A)
                 (A) (A) (A) (A) (A) (A) (A) (A) (A) (A) (A) (A)
                 (A) (A) (A) (A) (A) (A) (A) (A) (A) (A) (A) (A)
                 (A) (A) (A) (A) (A) (A) (A) (A) (A) (A) (A) (A)
                 (A) (A) (A) (A) (A) (A) (A) (A) (A) (A) (A) (A)
                 (A) (A) (A) (A) (A) (A) (A) (A) (A) (A) (A) (A)
                 (A) (A) (A) (A) (A) (A) (A) (A) (A) (A) (A) (A)
                 (A) (A) (A) (A) (A) (A) (A) (A) (A) (A) (A) (A)
                 (A) (A) (A) (A) (A) (A) (A) (A) (A) (A) (A) (A)
                 (A) (A) (A) (A) (A) (A) (A) (A) (A) (A) (A) (A)
                 (A) (A) (A) (A) (A) (A) (A) (A) (A) (A) (A) (A)
                 (A) (A) (A) (A) (A) (A) (A) (A) (A) (A) (A) (A)
                 (A) (A) (A) (A) (A) (A) (A) (A) (A) (A) (A) (A)
                 (A) (A) (A) (A) (A) (A) (A) (A) (A) (A) (A) (A)
                 (A) (A) (A) (A) (A) (A) (A) (A) (A) (A) (A) (A)
                 (A) (A) (A) (A) (A) (A) (A) (A) (A) (A) (A) (A)
                 (A) (A) (A) (A) (A) (A) (A) (A) (A) (A) (A) (A)
                 (A) (A) (A) (A) (A) (A) (A) (A) (A) (A) (A) (A)
                 (A) (A) (A) (A) (A) (A) (A) (A) (A) (A) (A) (A)
                 (A) (A) (A) (A) (A) (A) (A) (A) (A) (A) (A) (A)
                 (A) (A) (A) (A) (A) (A) (A) (A) (A) (A) (A) (A)
                 (A) (A) (A) (A) (A) (A) (A) (A) (A) (A) (A) (A)
                 (A) (A) (A) (A) (A) (A) (A) (A) (A) (A) (A) (A)
                 (A)
 The electronic state is 1-A.
 Alpha  occ. eigenvalues --  -19.31005 -19.19870 -14.44254 -14.44203 -10.36429
 Alpha  occ. eigenvalues --  -10.35325 -10.35002 -10.33449 -10.32659 -10.30509
 Alpha  occ. eigenvalues --  -10.29735 -10.29728 -10.29197 -10.28336 -10.28179
 Alpha  occ. eigenvalues --  -10.27611 -10.27404 -10.27394 -10.27341 -10.27204
 Alpha  occ. eigenvalues --  -10.27085 -10.26512 -10.25325 -10.25316  -1.21570
 Alpha  occ. eigenvalues --   -1.10493  -1.05606  -1.05151  -0.97330  -0.95012
 Alpha  occ. eigenvalues --   -0.91305  -0.87264  -0.86206  -0.85805  -0.84565
 Alpha  occ. eigenvalues --   -0.83353  -0.80764  -0.76743  -0.75445  -0.73232
 Alpha  occ. eigenvalues --   -0.72186  -0.70858  -0.69784  -0.67502  -0.65066
 Alpha  occ. eigenvalues --   -0.63416  -0.61880  -0.60286  -0.59374  -0.57641
 Alpha  occ. eigenvalues --   -0.56465  -0.56069  -0.54530  -0.53634  -0.53148
 Alpha  occ. eigenvalues --   -0.52230  -0.51048  -0.50880  -0.50587  -0.49837
 Alpha  occ. eigenvalues --   -0.49665  -0.49311  -0.49026  -0.47927  -0.47525
 Alpha  occ. eigenvalues --   -0.46929  -0.46053  -0.45164  -0.44558  -0.44420
 Alpha  occ. eigenvalues --   -0.43287  -0.43159  -0.42688  -0.41977  -0.41788
 Alpha  occ. eigenvalues --   -0.41060  -0.38349  -0.35247  -0.33936  -0.32570
 Alpha  occ. eigenvalues --   -0.32249  -0.31964  -0.29659  -0.24365
 Alpha virt. eigenvalues --   -0.07319  -0.00810   0.01149   0.01593   0.01663
 Alpha virt. eigenvalues --    0.01987   0.02290   0.02581   0.02805   0.02972
 Alpha virt. eigenvalues --    0.03848   0.04014   0.04153   0.04611   0.04813
 Alpha virt. eigenvalues --    0.05271   0.05608   0.05699   0.06123   0.06714
 Alpha virt. eigenvalues --    0.06942   0.07120   0.07582   0.07971   0.08357
 Alpha virt. eigenvalues --    0.08491   0.08960   0.09119   0.09439   0.09747
 Alpha virt. eigenvalues --    0.09802   0.10272   0.10949   0.11020   0.11146
 Alpha virt. eigenvalues --    0.11485   0.11716   0.11837   0.11913   0.12094
 Alpha virt. eigenvalues --    0.12437   0.12532   0.12820   0.13208   0.13379
 Alpha virt. eigenvalues --    0.13492   0.13927   0.13969   0.14311   0.14605
 Alpha virt. eigenvalues --    0.14712   0.14831   0.15106   0.15271   0.15613
 Alpha virt. eigenvalues --    0.15755   0.15785   0.16196   0.16375   0.16472
 Alpha virt. eigenvalues --    0.16737   0.16992   0.17099   0.17844   0.17917
 Alpha virt. eigenvalues --    0.18384   0.18672   0.19001   0.19158   0.19263
 Alpha virt. eigenvalues --    0.19408   0.19895   0.19955   0.20362   0.20604
 Alpha virt. eigenvalues --    0.20877   0.21251   0.21437   0.21799   0.22022
 Alpha virt. eigenvalues --    0.22134   0.22673   0.22833   0.22949   0.23325
 Alpha virt. eigenvalues --    0.23844   0.24140   0.24487   0.24592   0.24847
 Alpha virt. eigenvalues --    0.25072   0.25268   0.25447   0.25829   0.26222
 Alpha virt. eigenvalues --    0.26322   0.26601   0.26775   0.26970   0.27266
 Alpha virt. eigenvalues --    0.27576   0.27986   0.28182   0.28298   0.28579
 Alpha virt. eigenvalues --    0.28712   0.28795   0.28867   0.29270   0.29431
 Alpha virt. eigenvalues --    0.29626   0.29916   0.30194   0.30528   0.30760
 Alpha virt. eigenvalues --    0.30838   0.31326   0.31552   0.31873   0.32049
 Alpha virt. eigenvalues --    0.32320   0.32811   0.32954   0.33276   0.33680
 Alpha virt. eigenvalues --    0.33773   0.34337   0.34646   0.34732   0.35151
 Alpha virt. eigenvalues --    0.35479   0.35574   0.36082   0.36270   0.36517
 Alpha virt. eigenvalues --    0.37063   0.37210   0.37561   0.37741   0.38160
 Alpha virt. eigenvalues --    0.38609   0.38830   0.38995   0.39169   0.39429
 Alpha virt. eigenvalues --    0.39660   0.39990   0.40338   0.40714   0.40978
 Alpha virt. eigenvalues --    0.41270   0.41399   0.41590   0.41979   0.42298
 Alpha virt. eigenvalues --    0.42479   0.42576   0.42936   0.43306   0.43446
 Alpha virt. eigenvalues --    0.43680   0.44201   0.44793   0.44810   0.45289
 Alpha virt. eigenvalues --    0.45582   0.46414   0.47000   0.47155   0.47516
 Alpha virt. eigenvalues --    0.47923   0.48404   0.48575   0.48759   0.49782
 Alpha virt. eigenvalues --    0.50214   0.50286   0.50719   0.51470   0.51559
 Alpha virt. eigenvalues --    0.51784   0.52212   0.52555   0.52855   0.53113
 Alpha virt. eigenvalues --    0.53643   0.53758   0.54223   0.54358   0.54465
 Alpha virt. eigenvalues --    0.54962   0.55291   0.55548   0.56275   0.56714
 Alpha virt. eigenvalues --    0.57031   0.57209   0.57405   0.57710   0.58051
 Alpha virt. eigenvalues --    0.58344   0.58899   0.59000   0.59456   0.59884
[...]
    22  O    0.003159  -0.001130   0.001068   0.008284  -0.037141   0.020446
    23  C    0.056290   0.020273  -0.006809  -0.110098  -0.102550   0.009412
    24  C   -0.155422  -0.035420   0.018037   0.067557  -0.026160  -0.004690
    25  H    3.403120  -0.214706  -0.028472   0.008067   0.000187  -0.000046
    26  H   -0.214706   2.817250  -0.176021  -0.023549   0.000127   0.000006
    27  H   -0.028472  -0.176021   2.870985  -0.238292   0.001177  -0.000131
    28  H    0.008067  -0.023549  -0.238292   3.862665  -0.018718   0.004224
    29  H    0.000187   0.000127   0.001177  -0.018718   3.216817  -0.470172
    30  H   -0.000046   0.000006  -0.000131   0.004224  -0.470172   5.922342
    31  H    0.000004   0.000001  -0.000007   0.000115  -0.002353   0.023138
    32  H    0.000001  -0.000000   0.000001  -0.000034   0.002925  -0.022438
    33  H    0.000000   0.000001  -0.000002  -0.000049   0.001238   0.002033
    34  H    0.000000  -0.000000  -0.000000   0.000007  -0.000163   0.003529
    35  H    0.000000  -0.000000   0.000001  -0.000014  -0.000105  -0.000007
    36  H    0.000002  -0.000000   0.000006  -0.000305   0.012771  -0.309590
    37  H   -0.000000   0.000000  -0.000001   0.000086  -0.001664   0.042585
    38  H    0.000000   0.000000  -0.000003   0.000044  -0.003337  -0.105759
    39  H    0.000000  -0.000000   0.000000  -0.000024   0.001959  -0.004003
    40  H   -0.000000  -0.000000   0.000000  -0.000027   0.001596  -0.020784
    41  H   -0.000080  -0.000039   0.000125   0.000458  -0.004665  -0.060782
    42  H   -0.004798   0.001880  -0.001388   0.006706   0.002370  -0.000537
              31         32         33         34         35         36
     1  O   -0.000021   0.000001  -0.000017  -0.000001   0.000001   0.000001
     2  C    0.004086  -0.000041   0.001950  -0.000023  -0.000118  -0.000030
     3  C   -0.000739  -0.000036  -0.000243  -0.000044   0.000013  -0.000368
     4  C    0.000069   0.000015   0.000026  -0.000004  -0.000000   0.000006
     5  C   -0.000010  -0.000003   0.000015  -0.000001  -0.000002  -0.000008
     6  C    0.000048   0.000002  -0.000015   0.000003   0.000009   0.000164
     7  C    0.000801  -0.000159   0.000119   0.000012  -0.000008  -0.000057
     8  C   -0.001606   0.000348  -0.001227   0.000128  -0.000005   0.000953
     9  C   -0.002913   0.000996   0.003995   0.000402  -0.000573  -0.010206
    10  N    0.002614  -0.001399   0.000617  -0.000449  -0.000006   0.003471
    11  C   -0.061796   0.014957  -0.031205   0.001360   0.005139  -0.018329
    12  C   -0.001542   0.000782   0.027624   0.004194  -0.008812  -0.078287
    13  C   -0.047733   0.029506  -0.076901  -0.002780   0.011783   0.146877
    14  C    0.516167  -0.229307   0.083025  -0.042070  -0.042913   0.819101
    15  N   -0.280893  -0.346780  -0.234912   0.230712  -0.113674  -0.494711
    16  C   -0.522809   0.036187   0.312705   0.008246  -0.117651  -0.278347
    17  C    0.053976  -0.300873   0.200304   0.227714   0.130017   0.039562
    18  C   -0.293246   0.309527  -0.004403   0.011992  -0.093585  -0.468842
    19  C    0.045784  -0.033044   0.003143  -0.014879   0.026872   0.030053
    20  C    0.328931  -0.000601  -0.053430   0.024040   0.176669  -0.196844
    21  C   -0.188067   0.044401  -0.032284  -0.012623  -0.004629  -0.019528
    22  O    0.008327   0.000363   0.006974  -0.000703  -0.000095  -0.000421
    23  C    0.045192  -0.008409  -0.003931  -0.002615   0.002599  -0.000655
    24  C   -0.001023  -0.000006  -0.001984   0.000066   0.000409   0.000318
    25  H    0.000004   0.000001   0.000000   0.000000   0.000000   0.000002
    26  H    0.000001  -0.000000   0.000001  -0.000000  -0.000000  -0.000000
    27  H   -0.000007   0.000001  -0.000002  -0.000000   0.000001   0.000006
    28  H    0.000115  -0.000034  -0.000049   0.000007  -0.000014  -0.000305
    29  H   -0.002353   0.002925   0.001238  -0.000163  -0.000105   0.012771
    30  H    0.023138  -0.022438   0.002033   0.003529  -0.000007  -0.309590
    31  H    3.046968  -0.922214  -0.117197  -0.158468   0.233622  -0.026677
    32  H   -0.922214   3.035630   0.161353  -0.148069  -0.182573   0.035637
    33  H   -0.117197   0.161353   1.982144  -0.376201  -0.349399  -0.002825
    34  H   -0.158468  -0.148069  -0.376201   2.001073  -0.438763   0.001495
    35  H    0.233622  -0.182573  -0.349399  -0.438763   2.128737  -0.008576
    36  H   -0.026677   0.035637  -0.002825   0.001495  -0.008576   3.165428
    37  H    0.033555   0.039697  -0.002827   0.009688  -0.010314  -0.897627
    38  H    0.000416  -0.004308   0.002451  -0.000542  -0.000295  -0.107696
    39  H    0.001732   0.007777  -0.000301  -0.001545   0.001112  -0.172159
    40  H   -0.006477   0.004971  -0.000718   0.000119   0.003468   0.233324
    41  H   -0.298476   0.060526  -0.171325  -0.015445  -0.006268   0.026140
    42  H    0.002446  -0.000037   0.000849  -0.000015   0.000112  -0.000040
              37         38         39         40         41         42
     1  O   -0.000001  -0.000000  -0.000000   0.000000   0.001371  -0.132122
     2  C    0.000124   0.000205   0.000012  -0.000078  -0.055756   0.759381
     3  C   -0.000042  -0.000030   0.000009  -0.000023   0.008607  -0.052591
     4  C    0.000004   0.000024   0.000003  -0.000009  -0.004347   0.066906
     5  C   -0.000001  -0.000001  -0.000001   0.000000   0.000785   0.027957
     6  C   -0.000016  -0.000088  -0.000006   0.000019  -0.001149  -0.014596
     7  C   -0.000037  -0.000483  -0.000043   0.000101  -0.009110   0.005550
     8  C    0.000312   0.000811   0.000070  -0.000118   0.036237  -0.223952
     9  C    0.002859  -0.001485  -0.000663  -0.000246  -0.062051   0.309364
    10  N   -0.000137   0.002430  -0.000475   0.000120  -0.068518  -0.049205
    11  C   -0.008514  -0.027058   0.004786  -0.000203   0.547168   0.031131
    12  C   -0.008980  -0.092294  -0.007971   0.023049  -0.612826  -0.005159
    13  C    0.010246   0.094995   0.057229  -0.001468   0.748098  -0.010484
    14  C   -0.170326   0.056776  -0.102651   0.098132  -0.279653   0.022070
    15  N   -0.463430  -0.299272   0.282267  -0.187919   0.450975  -0.002006
    16  C    0.348350   0.011940   0.009826  -0.084011  -0.047598   0.000300
    17  C   -0.062994   0.004380  -0.011898   0.015109  -0.038253   0.000035
    18  C    0.106365   0.317790  -0.052724  -0.034691   0.190748  -0.000343
    19  C   -0.328401   0.119174   0.261031   0.144876   0.020764   0.000042
    20  C   -0.024625  -0.133546   0.016997   0.019031  -5.449354   0.165364
    21  C    0.070552   0.060398  -0.001860  -0.016731   2.344097  -0.742127
    22  O   -0.001211  -0.000353  -0.000174   0.000344  -0.590066  -0.362575
    23  C   -0.001710  -0.002012   0.000177   0.000375  -0.744278   1.977602
    24  C   -0.000447   0.000086   0.000049   0.000044   0.121991  -3.097019
    25  H   -0.000000   0.000000   0.000000  -0.000000  -0.000080  -0.004798
    26  H    0.000000   0.000000  -0.000000  -0.000000  -0.000039   0.001880
    27  H   -0.000001  -0.000003   0.000000   0.000000   0.000125  -0.001388
    28  H    0.000086   0.000044  -0.000024  -0.000027   0.000458   0.006706
    29  H   -0.001664  -0.003337   0.001959   0.001596  -0.004665   0.002370
    30  H    0.042585  -0.105759  -0.004003  -0.020784  -0.060782  -0.000537
    31  H    0.033555   0.000416   0.001732  -0.006477  -0.298476   0.002446
    32  H    0.039697  -0.004308   0.007777   0.004971   0.060526  -0.000037
    33  H   -0.002827   0.002451  -0.000301  -0.000718  -0.171325   0.000849
    34  H    0.009688  -0.000542  -0.001545   0.000119  -0.015445  -0.000015
    35  H   -0.010314  -0.000295   0.001112   0.003468  -0.006268   0.000112
    36  H   -0.897627  -0.107696  -0.172159   0.233324   0.026140  -0.000040
    37  H    3.087699   0.170875  -0.160068  -0.170339  -0.021129   0.000018
    38  H    0.170875   1.987112  -0.393263  -0.331625  -0.004113   0.000011
    39  H   -0.160068  -0.393263   2.016555  -0.440260   0.002539   0.000002
    40  H   -0.170339  -0.331625  -0.440260   2.087202   0.001591  -0.000005
    41  H   -0.021129  -0.004113   0.002539   0.001591   6.643640  -0.045287
    42  H    0.000018   0.000011   0.000002  -0.000005  -0.045287   3.380854
 Mulliken charges:
               1
     1  O   -0.779522
     2  C   -0.839457
     3  C    2.094617
     4  C    0.464960
     5  C    0.312861
     6  C   -0.230223
     7  C    1.138474
     8  C    1.473922
     9  C   -0.259704
    10  N   -0.204358
    11  C    0.272331
    12  C    0.480876
    13  C    1.794848
    14  C    0.536862
    15  N   -0.090522
    16  C    0.864936
    17  C    1.248209
    18  C    0.958445
    19  C    1.226353
    20  C    1.707723
    21  C    0.034186
    22  O   -0.528014
    23  C    0.115101
    24  C    0.890550
    25  H   -1.024593
    26  H   -0.762114
    27  H   -0.798110
    28  H   -1.104085
    29  H   -0.896564
    30  H   -1.500828
    31  H   -0.413721
    32  H   -0.585272
    33  H   -0.329171
    34  H   -0.309377
    35  H   -0.342178
    36  H   -0.423180
    37  H   -0.588172
    38  H   -0.322353
    39  H   -0.314041
    40  H   -0.337741
    41  H   -1.615290
    42  H   -1.016661
 Sum of Mulliken charges =  -0.00000
 Mulliken charges with hydrogens summed into heavy atoms:
               1
     1  O   -0.779522
     2  C   -0.839457
     3  C    2.094617
     4  C   -0.559633
     5  C   -0.449253
     6  C   -1.028333
     7  C    0.034389
     8  C    1.473922
     9  C   -0.259704
    10  N   -0.204358
    11  C    0.272331
    12  C   -0.415688
    13  C    0.294021
    14  C    0.536862
    15  N   -0.090522
    16  C   -0.134057
    17  C    0.267483
    18  C   -0.052907
    19  C    0.252218
    20  C    0.092433
    21  C    0.034186
    22  O   -0.528014
    23  C    0.115101
    24  C   -0.126112
 Electronic spatial extent (au):  <R**2>=          11115.1024
 Charge=             -0.0000 electrons
 Dipole moment (field-independent basis, Debye):
    X=             17.9162    Y=             -5.0014    Z=              0.5647  Tot=             18.6098
 Quadrupole moment (field-independent basis, Debye-Ang):
   XX=           -112.3046   YY=           -146.6078   ZZ=           -145.5415
   XY=             28.9422   XZ=             -2.6655   YZ=              0.1869
 Traceless Quadrupole moment (field-independent basis, Debye-Ang):
   XX=             22.5134   YY=            -11.7898   ZZ=            -10.7235
   XY=             28.9422   XZ=             -2.6655   YZ=              0.1869
 Octapole moment (field-independent basis, Debye-Ang**2):
  XXX=            439.4081  YYY=            -56.2774  ZZZ=             -2.3631  XYY=            116.4388
  XXY=           -148.1557  XXZ=             15.9791  XZZ=             25.7977  YZZ=              7.9955
  YYZ=              7.8013  XYZ=             -9.4559
 Hexadecapole moment (field-independent basis, Debye-Ang**3):
 XXXX=         -11313.6595 YYYY=          -2183.9347 ZZZZ=           -319.6645 XXXY=            754.2994
 XXXZ=            -67.6957 YYYX=            302.0652 YYYZ=             -4.6842 ZZZX=              3.8412
 ZZZY=              1.6301 XXYY=          -2649.5019 XXZZ=          -2297.5556 YYZZ=           -430.5847
 XXYZ=              5.5628 YYXZ=            -32.3940 ZZXY=            -12.3214
 N-N= 1.892865376417D+03 E-N=-6.185878854835D+03  KE= 1.026589433483D+03
 No NMR shielding tensors so no spin-rotation constants.
 Leave Link  601 at Wed Feb 28 20:35:33 2024, MaxMem=  1342177280 cpu:               5.0 elap:               0.6
 (Enter /apps/x86-64/apps/gaussian_g16c01_avx2/g16/l124.exe)
 SC-PCM: Using the CI Density.
 SC-PCM: The non-equilibrium contribution to the free energy is   -0.028219586 a.u.
 SC-PCM: The total energy including the PCM contribution is     -1032.415166087 a.u.
 SC-PCM: Erms=  0.56538D-07 Emax=  0.23608D-06 Qconv=  0.10000D-06
 SC-PCM: Convergence achieved in   5 iterations.
 SC-PCM: The reaction field is now self-consistent.
 Error on total polarization charges =  0.00097
 --------------------------------------------------------------------
 Self-consistent PCM results
 ===========================
 <psi(f)|   H    |psi(f)>                     (a.u.) =   -1032.386947
 <psi(f)|H+V(f)/2|psi(f)>                     (a.u.) =   -1032.415166
 (Polarized solute)-Solvent               (kcal/mol) =     -17.71
 --------------------------------------------------------------------
 Partition over spheres:
 Sphere  on Atom  Surface  Charge   GEl     GCav    GDR
    1      O1      23.18   0.010   -0.31    0.00    0.00
    2      C2       7.25   0.003   -0.05    0.00    0.00
    3      C3       5.77   0.002   -0.02    0.00    0.00
    4      C4      10.67   0.001   -0.02    0.00    0.00
    5      C5      11.64   0.002   -0.01    0.00    0.00
    6      C6      11.56   0.002   -0.01    0.00    0.00
    7      C7      10.63   0.002   -0.02    0.00    0.00
    8      C8       5.65   0.002   -0.02    0.00    0.00
    9      C9       6.33   0.003   -0.02    0.00    0.00
   10      N10     11.06   0.009   -0.10    0.00    0.00
   11      C11      6.34  -0.002    0.00    0.00    0.00
   12      C12     11.07  -0.002   -0.00    0.00    0.00
   13      C13      9.13  -0.004   -0.03    0.00    0.00
   14      C14      6.02  -0.002   -0.02    0.00    0.00
   15      N15      1.78  -0.001   -0.02    0.00    0.00
   16      C16      4.11  -0.002   -0.02    0.00    0.00
   17      C17     10.42  -0.002   -0.03    0.00    0.00
   18      C18      4.01  -0.002   -0.03    0.00    0.00
   19      C19     10.47  -0.002   -0.03    0.00    0.00
   20      C20      8.66  -0.003   -0.01    0.00    0.00
   21      C21      6.72  -0.000   -0.00    0.00    0.00
   22      O22     11.00   0.004   -0.02    0.00    0.00
   23      C23      6.85   0.003   -0.02    0.00    0.00
   24      C24     10.68   0.001   -0.01    0.00    0.00
   25      H25      9.78   0.001   -0.01    0.00    0.00
   26      H26     12.16   0.001   -0.00    0.00    0.00
   27      H27     12.10   0.001    0.00    0.00    0.00
   28      H28      9.75   0.002   -0.01    0.00    0.00
   29      H29     11.76  -0.001   -0.00    0.00    0.00
   30      H30      7.26  -0.002   -0.04    0.00    0.00
   31      H31      8.72  -0.003   -0.04    0.00    0.00
   32      H32      8.86  -0.003   -0.05    0.00    0.00
   33      H33      9.82  -0.002   -0.02    0.00    0.00
   34      H34     12.03  -0.002   -0.03    0.00    0.00
   35      H35     10.61  -0.002   -0.03    0.00    0.00
   36      H36      8.60  -0.003   -0.04    0.00    0.00
   37      H37      8.94  -0.003   -0.05    0.00    0.00
   38      H38     10.00  -0.002   -0.03    0.00    0.00
   39      H39     12.02  -0.002   -0.03    0.00    0.00
   40      H40     10.50  -0.002   -0.03    0.00    0.00
   41      H41      7.08  -0.002   -0.02    0.00    0.00
   42      H42     11.48   0.001   -0.01    0.00    0.00
 --------------------------------------------------------------------
 After PCM corrections, the energy is  -1032.41516609     a.u.
 --------------------------------------------------------------------
 Leave Link  124 at Wed Feb 28 20:35:36 2024, MaxMem=  1342177280 cpu:              24.7 elap:               2.6
 (Enter /apps/x86-64/apps/gaussian_g16c01_avx2/g16/l9999.exe)
 Electronic transition elements 
                 1             2             3             4             5 
      1  -0.103241D+04 -0.103238D+04 -0.103237D+04 -0.103236D+04 -0.103235D+04
      2   0.285875D+01 -0.689179D-01 -0.622719D-02 -0.999670D-02 -0.222702D+00
      3   0.244914D+01  0.168136D+00  0.155708D-04  0.206320D-01  0.432964D+00
      4   0.325613D+00 -0.294616D-01  0.138925D-01  0.102346D+00 -0.948478D-01
      5  -0.278830D+00  0.909795D-02  0.980329D-03  0.225614D-02  0.338282D-01
      6  -0.239028D+00 -0.221776D-01 -0.608899D-04 -0.338003D-02 -0.662589D-01
      7  -0.317306D-01  0.394285D-02 -0.260136D-02 -0.190962D-01  0.143845D-01
      8   0.159298D+00  0.629862D-01  0.718073D+00  0.363235D+00  0.457726D-01
      9  -0.925415D-01 -0.427873D-01  0.276357D-01  0.257906D+00 -0.319580D-01
     10  -0.879144D+00 -0.366584D+00  0.131263D+00  0.315254D-01 -0.162330D+00
     11   0.338489D+00 -0.620849D+00 -0.387345D-02  0.939016D-02 -0.260990D+00
     12   0.502728D-01 -0.215645D+00  0.724900D-02  0.141628D-01  0.689421D-01
     13  -0.832512D-02 -0.312075D-01 -0.708929D-02 -0.224359D-01 -0.385628D-02
     14   0.163121D-01 -0.161806D+00 -0.852544D-02 -0.160041D-01 -0.155656D+00
     15   0.101505D+00 -0.837296D-01  0.224717D-02 -0.222288D-01 -0.180238D-01
     16  -0.228633D-01 -0.180506D-01  0.422721D-01  0.690104D-01 -0.315505D-01
                 6 
      1  -0.103235D+04
      2  -0.131004D+00
      3   0.269733D-01
      4  -0.359205D-01
      5   0.208935D-01
      6  -0.430994D-02
      7   0.569159D-02
      8  -0.123629D+00
      9   0.508181D-01
     10   0.716430D+00
     11  -0.383658D+00
     12  -0.718108D+00
     13  -0.904417D-02
     14  -0.595370D+00
     15   0.408910D-02
     16  -0.471803D-01
 Unable to Open any file for archive entry.
 1\1\ASC-ASA-X_DMC_AVX2\SP\RCAM-B3LYP TD-FC\Aug-CC-pVDZ\C20H18N2O2\AUBM
 XB002\28-Feb-2024\0\\#p cam-b3lyp/aug-cc-pvdz TD(NStates=6,Root=1) SCR
 F=(Solvent=water,ExternalIteration,Read) Geom=Check Guess=Read Int=(Ul
 trafine,Acc2E=12)\\water: read solvent reaction field from ground stat
 e and compute energy of the first excited with the EI method and non-e
 quilibrium solvation\\0,1\O,0,1.139727402,0.0493544634,-0.9246508426\C
 ,0,2.3747552464,0.0454199794,-0.6972730744\C,0,3.1020039238,-1.2235187
 741,-0.449277427\C,0,2.4021626423,-2.4403522889,-0.470513345\C,0,3.057
 5742676,-3.6392395434,-0.2394082099\C,0,4.4352058895,-3.6402240638,0.0
 193864811\C,0,5.1433021847,-2.4495842572,0.0443960543\C,0,4.4930680597
 ,-1.2238955275,-0.1885154862\C,0,5.2266284822,0.0389186345,-0.16343214
 57\N,0,6.5197175225,0.067173469,0.0849349655\C,0,7.1610411414,1.261610
 8027,0.1015404301\C,0,8.5463404908,1.353483978,0.3722690196\C,0,9.1937
 716586,2.5614094645,0.3888852163\C,0,8.4942368707,3.7878492197,0.12966
 66331\N,0,9.1410982229,4.9814023715,0.1406022034\C,0,8.4728537517,6.23
 66017196,-0.236182089\C,0,7.7895739041,6.9456520992,0.933066982\C,0,10
 .5543795816,5.1102434017,0.5314919119\C,0,11.5311235024,4.9616804091,-
 0.6344569038\C,0,7.1020915883,3.7053284875,-0.1417913241\C,0,6.4830068
 63,2.4783998101,-0.1492119894\O,0,5.1334198238,2.4415280626,-0.4041833
 382\C,0,4.4741106121,1.2449226804,-0.4144290072\C,0,3.133164912,1.2610
 049385,-0.6669934546\H,0,1.3382325817,-2.4272001745,-0.6711139686\H,0,
 2.5071199319,-4.5727518728,-0.2582789105\H,0,4.9514996516,-4.575991393
 9,0.2012939763\H,0,6.206499171,-2.4544565225,0.2448390075\H,0,9.094060
 9836,0.437625991,0.5622325925\H,0,10.2556467976,2.5773555164,0.5841143
 778\H,0,7.7592480293,6.0380546415,-1.0369299877\H,0,9.2404316515,6.884
 6707213,-0.6635234477\H,0,6.9955983738,6.3316193067,1.3649361115\H,0,7
 .3455015817,7.8820712317,0.5836413812\H,0,8.5091238221,7.184496613,1.7
 207071586\H,0,10.7787247711,4.3885184241,1.3170920308\H,0,10.664813351
 4,6.0981710213,0.9828512165\H,0,11.4647739504,3.9688805698,-1.08621380
 7\H,0,12.5541166255,5.1071777927,-0.2759017214\H,0,11.3341827154,5.707
 636455,-1.4090542003\H,0,6.5012574414,4.5842808638,-0.3230885327\H,0,2
 .6240100151,2.199871309,-0.8481244869\\Version=ES64L-G16RevC.01\State=
 1-A\HF=-1032.5090197\RMSD=8.861e-09\Dipole=6.1376243,3.9088265,0.81062
 1\Quadrupole=-18.191429,26.5785789,-8.3871499,10.6968426,-2.8193477,-1
 .013909\PG=C01 [X(C20H18N2O2)]\\@
 The archive entry for this job was punched.


 ROSE IS A RED
 TY COBB IS BLUE
 'CAUSE PETE JUST HIT
 NO. 4592.
 Job cpu time:       4 days  2 hours 57 minutes 16.0 seconds.
 Elapsed time:       0 days 10 hours 19 minutes 15.7 seconds.
 File lengths (MBytes):  RWF=   2434 Int=      0 D2E=      0 Chk=    151 Scr=      1
 Normal termination of Gaussian 16 at Wed Feb 28 20:35:37 2024.
